
     Program PWSCF v.7.1 starts on 14Aug2023 at 17:37:50 

     This program is part of the open-source Quantum ESPRESSO suite
     for quantum simulation of materials; please cite
         "P. Giannozzi et al., J. Phys.:Condens. Matter 21 395502 (2009);
         "P. Giannozzi et al., J. Phys.:Condens. Matter 29 465901 (2017);
         "P. Giannozzi et al., J. Chem. Phys. 152 154105 (2020);
          URL http://www.quantum-espresso.org", 
     in publications or presentations arising from this work. More details at
     http://www.quantum-espresso.org/quote

     Parallel version (MPI), running on     4 processors

     MPI processes distributed on     1 nodes
     15278 MiB available memory on the printing compute node when the environment starts

     Waiting for input...
     Reading input from standard input
Warning: card  &CELL ignored
Warning: card  / ignored

     Current dimensions of program PWSCF are:
     Max number of different atomic species (ntypx) = 10
     Max number of k-points (npk) =  40000
     Max angular momentum in pseudopotentials (lmaxx) =  4
     file Nb.pbe-spn-kjpaw_psl.0.3.0.UPF: wavefunction(s)  4S 4P renormalized
     file O.pbe-n-kjpaw_psl.0.1.UPF: wavefunction(s)  2P renormalized
     file C.pbe-n-kjpaw_psl.1.0.0.UPF: wavefunction(s)  2S 2P renormalized
     Message from routine setup:
     using ibrav=0 with symmetry is DISCOURAGED, use correct ibrav instead

     R & G space division:  proc/nbgrp/npool/nimage =       4
     Subspace diagonalization in iterative solution of the eigenvalue problem:
     one sub-group per band group will be used
     scalapack distributed-memory algorithm (size of sub-group:  2*  2 procs)


     Parallelization info
     --------------------
     sticks:   dense  smooth     PW     G-vecs:    dense   smooth      PW
     Min        1463    1463    391               184513   184513   25423
     Max        1464    1464    392               184516   184516   25432
     Sum        5853    5853   1565               738057   738057  101701

     Using Slab Decomposition


     Title: 
     Si8                                                                        


     bravais-lattice index     =            0
     lattice parameter (alat)  =      15.1572  a.u.
     unit-cell volume          =    7637.8593 (a.u.)^3
     number of atoms/cell      =           64
     number of atomic types    =            3
     number of electrons       =       576.00
     number of Kohn-Sham states=          346
     kinetic-energy cutoff     =      80.0000  Ry
     charge density cutoff     =     320.0000  Ry
     scf convergence threshold =      1.0E-06
     mixing beta               =       0.7000
     number of iterations used =            8  plain     mixing
     energy convergence thresh.=      1.0E-04
     force convergence thresh. =      1.0E-03
     Exchange-correlation= SLA  PW   PBX  PBC
                           (   1   4   3   4   0   0   0)
     nstep                     =           10


     celldm(1)=  15.157151  celldm(2)=   0.000000  celldm(3)=   0.000000
     celldm(4)=   0.000000  celldm(5)=   0.000000  celldm(6)=   0.000000

     crystal axes: (cart. coord. in units of alat)
               a(1) = (   1.000000   0.000000   0.000000 )  
               a(2) = (   0.000000   1.000000   0.000000 )  
               a(3) = (   0.000000   0.000000   2.193405 )  

     reciprocal axes: (cart. coord. in units 2 pi/alat)
               b(1) = (  1.000000  0.000000  0.000000 )  
               b(2) = ( -0.000000  1.000000  0.000000 )  
               b(3) = ( -0.000000 -0.000000  0.455912 )  


     PseudoPot. # 1 for Nb read from file:
     /home/im0225/cryspy/nb/pseudo/Nb.pbe-spn-kjpaw_psl.0.3.0.UPF
     MD5 check sum: 411d72ad547312f8017e2943ceca08cc
     Pseudo is Projector augmented-wave + core cor, Zval = 13.0
     Generated using "atomic" code by A. Dal Corso  v.5.0.99 svn rev. 10869
     Shape of augmentation charge: PSQ
     Using radial grid of 1227 points,  6 beta functions with: 
                l(1) =   0
                l(2) =   0
                l(3) =   1
                l(4) =   1
                l(5) =   2
                l(6) =   2
     Q(r) pseudized with 0 coefficients 


     PseudoPot. # 2 for O  read from file:
     /home/im0225/cryspy/nb/pseudo/O.pbe-n-kjpaw_psl.0.1.UPF
     MD5 check sum: 0234752ac141de4415c5fc33072bef88
     Pseudo is Projector augmented-wave + core cor, Zval =  6.0
     Generated using "atomic" code by A. Dal Corso  v.5.0.99 svn rev. 10869
     Shape of augmentation charge: BESSEL
     Using radial grid of 1095 points,  4 beta functions with: 
                l(1) =   0
                l(2) =   0
                l(3) =   1
                l(4) =   1
     Q(r) pseudized with 0 coefficients 


     PseudoPot. # 3 for C  read from file:
     /home/im0225/cryspy/nb/pseudo/C.pbe-n-kjpaw_psl.1.0.0.UPF
     MD5 check sum: 5d2aebdfa2cae82b50a7e79e9516da0f
     Pseudo is Projector augmented-wave + core cor, Zval =  4.0
     Generated using "atomic" code by A. Dal Corso  v.5.1
     Shape of augmentation charge: PSQ
     Using radial grid of 1073 points,  4 beta functions with: 
                l(1) =   0
                l(2) =   0
                l(3) =   1
                l(4) =   1
     Q(r) pseudized with 0 coefficients 


     atomic species   valence    mass     pseudopotential
        Nb            13.00    92.90600     Nb( 1.00)
        O              6.00    15.99900     O ( 1.00)
        C              4.00    12.01100     C ( 1.00)

      8 Sym. Ops. (no inversion) found ( 4 have fractional translation)



   Cartesian axes

     site n.     atom                  positions (alat units)
         1           Nb  tau(   1) = (   0.5000000   0.5000000   0.0000000  )
         2           Nb  tau(   2) = (   0.5000000   0.5000000   1.0967026  )
         3           Nb  tau(   3) = (   0.9812835   0.6955480   0.3183360  )
         4           Nb  tau(   4) = (  -0.9812835  -0.6955480   0.3183360  )
         5           Nb  tau(   5) = (  -0.6955480   0.9812835   1.4150386  )
         6           Nb  tau(   6) = (   0.6955480  -0.9812835   1.4150386  )
         7           Nb  tau(   7) = (  -0.9812835   0.6955480  -0.3183360  )
         8           Nb  tau(   8) = (   0.9812835  -0.6955480  -0.3183360  )
         9           Nb  tau(   9) = (   0.6955480   0.9812835   0.7783667  )
        10           Nb  tau(  10) = (  -0.6955480  -0.9812835   0.7783667  )
        11           Nb  tau(  11) = (   0.3998291   0.3251121   0.9481221  )
        12           Nb  tau(  12) = (   0.6001709   0.6748879   0.9481221  )
        13           Nb  tau(  13) = (   0.6748879   0.3998291   2.0448247  )
        14           Nb  tau(  14) = (   0.3251121   0.6001709   2.0448247  )
        15           Nb  tau(  15) = (   0.6001709   0.3251121   1.2452832  )
        16           Nb  tau(  16) = (   0.3998291   0.6748879   1.2452832  )
        17           Nb  tau(  17) = (   0.3251121   0.3998291   0.1485806  )
        18           Nb  tau(  18) = (   0.6748879   0.6001709   0.1485806  )
        19           Nb  tau(  19) = (   0.5844013   0.4108849   1.5094479  )
        20           Nb  tau(  20) = (   0.4155987   0.5891151   1.5094479  )
        21           Nb  tau(  21) = (   0.5891151   0.5844013   0.4127453  )
        22           Nb  tau(  22) = (   0.4108849   0.4155987   0.4127453  )
        23           Nb  tau(  23) = (   0.4155987   0.4108849   0.6839574  )
        24           Nb  tau(  24) = (   0.5844013   0.5891151   0.6839574  )
        25           Nb  tau(  25) = (   0.4108849   0.5844013   1.7806600  )
        26           Nb  tau(  26) = (   0.5891151   0.4155987   1.7806600  )
        27           Nb  tau(  27) = (   0.0000000   0.5000000   0.0000000  )
        28           Nb  tau(  28) = (   0.5000000   0.0000000   1.0967026  )
        29           Nb  tau(  29) = (   0.8811057   0.5000000   1.0967026  )
        30           Nb  tau(  30) = (   0.1188943   0.5000000   1.0967026  )
        31           Nb  tau(  31) = (   0.5000000   0.8811057   0.0000000  )
        32           Nb  tau(  32) = (   0.5000000   0.1188943   0.0000000  )
        33           C   tau(  33) = (   0.1725071   0.6422576   0.2546057  )
        34           C   tau(  34) = (   0.8274929   0.3577424   0.2546057  )
        35           C   tau(  35) = (   0.3577424   0.1725071   1.3513084  )
        36           C   tau(  36) = (   0.6422576   0.8274929   1.3513084  )
        37           C   tau(  37) = (   0.8274929   0.6422576   1.9387996  )
        38           C   tau(  38) = (   0.1725071   0.3577424   1.9387996  )
        39           C   tau(  39) = (   0.6422576   0.1725071   0.8420969  )
        40           C   tau(  40) = (   0.3577424   0.8274929   0.8420969  )
        41           C   tau(  41) = (   0.0000000   0.0000000   0.0000000  )
        42           C   tau(  42) = (   0.0000000   0.0000000   1.0967026  )
        43           C   tau(  43) = (   0.5000000   0.5000000   0.5483513  )
        44           C   tau(  44) = (   0.5000000   0.5000000   1.6450540  )
        45           C   tau(  45) = (   0.0000000   0.0000000   1.9282410  )
        46           C   tau(  46) = (   0.0000000   0.0000000   0.8315384  )
        47           C   tau(  47) = (   0.0000000   0.0000000   0.2651642  )
        48           C   tau(  48) = (   0.0000000   0.0000000   1.3618669  )
        49           O   tau(  49) = (   0.9547876   0.6453706   0.6423018  )
        50           O   tau(  50) = (   0.0452124   0.3546294   0.6423018  )
        51           O   tau(  51) = (   0.3546294   0.9547876   1.7390044  )
        52           O   tau(  52) = (   0.6453706   0.0452124   1.7390044  )
        53           O   tau(  53) = (   0.0452124   0.6453706   1.5511035  )
        54           O   tau(  54) = (   0.9547876   0.3546294   1.5511035  )
        55           O   tau(  55) = (   0.6453706   0.9547876   0.4544009  )
        56           O   tau(  56) = (   0.3546294   0.0452124   0.4544009  )
        57           O   tau(  57) = (   0.0000000   0.5000000   1.7994291  )
        58           O   tau(  58) = (   0.5000000   0.0000000   0.7027264  )
        59           O   tau(  59) = (   0.0000000   0.5000000   0.3939762  )
        60           O   tau(  60) = (   0.5000000   0.0000000   1.4906789  )
        61           O   tau(  61) = (   0.0000000   0.5000000   0.5024603  )
        62           O   tau(  62) = (   0.5000000   0.0000000   1.5991630  )
        63           O   tau(  63) = (   0.0000000   0.5000000   1.6909449  )
        64           O   tau(  64) = (   0.5000000   0.0000000   0.5942423  )

     number of k points=     3  Gaussian smearing, width (Ry)=  0.0100
                       cart. coord. in units 2pi/alat
        k(    1) = (   0.0000000   0.0000000   0.0000000), wk =   0.5000000
        k(    2) = (   0.0000000  -0.5000000   0.0000000), wk =   1.0000000
        k(    3) = (  -0.5000000  -0.5000000   0.0000000), wk =   0.5000000

     Dense  grid:   738057 G-vectors     FFT dimensions: (  90,  90, 192)

     Estimated max dynamical RAM per process >       1.65 GB

     Estimated total dynamical RAM >       6.60 GB

     Check: negative core charge=   -0.000006

     Initial potential from superposition of free atoms

     starting charge     575.9314, renormalised to     576.0000
     Starting wfcs are  448 randomized atomic wfcs
     Checking if some PAW data can be deallocated... 

     total cpu time spent up to now is       44.0 secs

     per-process dynamical memory:  1055.6 Mb

     Self-consistent Calculation

     iteration #  1     ecut=    80.00 Ry     beta= 0.70
     Davidson diagonalization with overlap
     ethr =  1.00E-02,  avg # of iterations =  3.0

     total cpu time spent up to now is      146.5 secs

     total energy              =  -11604.04320166 Ry
     estimated scf accuracy    <      44.87292102 Ry

     iteration #  2     ecut=    80.00 Ry     beta= 0.70
     Davidson diagonalization with overlap
     ethr =  7.79E-03,  avg # of iterations =  6.7

     total cpu time spent up to now is      293.5 secs

     total energy              =  -11561.14523632 Ry
     estimated scf accuracy    <     929.69982055 Ry

     iteration #  3     ecut=    80.00 Ry     beta= 0.70
     Davidson diagonalization with overlap
     ethr =  7.79E-03,  avg # of iterations =  6.3

     total cpu time spent up to now is      437.4 secs

     total energy              =  -11623.65631588 Ry
     estimated scf accuracy    <      78.79647077 Ry

     iteration #  4     ecut=    80.00 Ry     beta= 0.70
     Davidson diagonalization with overlap
     ethr =  7.79E-03,  avg # of iterations =  4.0

     total cpu time spent up to now is      525.9 secs

     total energy              =  -11632.25491865 Ry
     estimated scf accuracy    <      10.83619874 Ry

     iteration #  5     ecut=    80.00 Ry     beta= 0.70
     Davidson diagonalization with overlap
     ethr =  1.88E-03,  avg # of iterations =  3.7

     total cpu time spent up to now is      612.2 secs

     total energy              =  -11632.58755119 Ry
     estimated scf accuracy    <      17.71770669 Ry

     iteration #  6     ecut=    80.00 Ry     beta= 0.70
     Davidson diagonalization with overlap
     ethr =  1.88E-03,  avg # of iterations =  2.0

     total cpu time spent up to now is      689.9 secs

     total energy              =  -11633.75275115 Ry
     estimated scf accuracy    <       5.36243304 Ry

     iteration #  7     ecut=    80.00 Ry     beta= 0.70
     Davidson diagonalization with overlap
     ethr =  9.31E-04,  avg # of iterations =  2.0

     total cpu time spent up to now is      768.6 secs

     total energy              =  -11633.92015493 Ry
     estimated scf accuracy    <       1.36384186 Ry

     iteration #  8     ecut=    80.00 Ry     beta= 0.70
     Davidson diagonalization with overlap
     ethr =  2.37E-04,  avg # of iterations =  9.3

     total cpu time spent up to now is      861.8 secs

     total energy              =  -11633.89218713 Ry
     estimated scf accuracy    <       2.17576686 Ry

     iteration #  9     ecut=    80.00 Ry     beta= 0.70
     Davidson diagonalization with overlap
     ethr =  2.37E-04,  avg # of iterations =  1.7

     total cpu time spent up to now is      936.9 secs

     total energy              =  -11634.01520462 Ry
     estimated scf accuracy    <       0.97113845 Ry

     iteration # 10     ecut=    80.00 Ry     beta= 0.70
     Davidson diagonalization with overlap
     ethr =  1.69E-04,  avg # of iterations =  1.7

     total cpu time spent up to now is     1012.3 secs

     total energy              =  -11634.06532182 Ry
     estimated scf accuracy    <       0.18256810 Ry

     iteration # 11     ecut=    80.00 Ry     beta= 0.70
     Davidson diagonalization with overlap
     ethr =  3.17E-05,  avg # of iterations =  9.0

     total cpu time spent up to now is     1102.5 secs

     total energy              =  -11634.07422624 Ry
     estimated scf accuracy    <       0.10286615 Ry

     iteration # 12     ecut=    80.00 Ry     beta= 0.70
     Davidson diagonalization with overlap
     ethr =  1.79E-05,  avg # of iterations =  8.3

     total cpu time spent up to now is     1187.0 secs

     total energy              =  -11634.08048820 Ry
     estimated scf accuracy    <       0.07211131 Ry

     iteration # 13     ecut=    80.00 Ry     beta= 0.70
     Davidson diagonalization with overlap
     ethr =  1.25E-05,  avg # of iterations =  4.3

     total cpu time spent up to now is     1264.0 secs

     total energy              =  -11634.08573283 Ry
     estimated scf accuracy    <       0.00510527 Ry

     iteration # 14     ecut=    80.00 Ry     beta= 0.70
     Davidson diagonalization with overlap
     c_bands:  1 eigenvalues not converged
     ethr =  8.86E-07,  avg # of iterations = 15.0

     total cpu time spent up to now is     1385.1 secs

     total energy              =  -11634.08570509 Ry
     estimated scf accuracy    <       0.01617813 Ry

     iteration # 15     ecut=    80.00 Ry     beta= 0.70
     Davidson diagonalization with overlap
     ethr =  8.86E-07,  avg # of iterations =  3.7

     total cpu time spent up to now is     1467.1 secs

     total energy              =  -11634.08696778 Ry
     estimated scf accuracy    <       0.00181803 Ry

     iteration # 16     ecut=    80.00 Ry     beta= 0.70
     Davidson diagonalization with overlap
     ethr =  3.16E-07,  avg # of iterations =  2.0

     total cpu time spent up to now is     1548.0 secs

     total energy              =  -11634.08701335 Ry
     estimated scf accuracy    <       0.00159639 Ry

     iteration # 17     ecut=    80.00 Ry     beta= 0.70
     Davidson diagonalization with overlap
     ethr =  2.77E-07,  avg # of iterations =  2.0

     total cpu time spent up to now is     1626.6 secs

     total energy              =  -11634.08710164 Ry
     estimated scf accuracy    <       0.00142199 Ry

     iteration # 18     ecut=    80.00 Ry     beta= 0.70
     Davidson diagonalization with overlap
     ethr =  2.47E-07,  avg # of iterations =  1.0

     total cpu time spent up to now is     1697.5 secs

     total energy              =  -11634.08718457 Ry
     estimated scf accuracy    <       0.00034446 Ry

     iteration # 19     ecut=    80.00 Ry     beta= 0.70
     Davidson diagonalization with overlap
     ethr =  5.98E-08,  avg # of iterations =  1.7

     total cpu time spent up to now is     1771.5 secs

     total energy              =  -11634.08720535 Ry
     estimated scf accuracy    <       0.00009125 Ry

     iteration # 20     ecut=    80.00 Ry     beta= 0.70
     Davidson diagonalization with overlap
     ethr =  1.58E-08,  avg # of iterations =  3.0

     total cpu time spent up to now is     1850.9 secs

     total energy              =  -11634.08720812 Ry
     estimated scf accuracy    <       0.00014745 Ry

     iteration # 21     ecut=    80.00 Ry     beta= 0.70
     Davidson diagonalization with overlap
     ethr =  1.58E-08,  avg # of iterations =  2.0

     total cpu time spent up to now is     1927.6 secs

     total energy              =  -11634.08721586 Ry
     estimated scf accuracy    <       0.00002997 Ry

     iteration # 22     ecut=    80.00 Ry     beta= 0.70
     Davidson diagonalization with overlap
     ethr =  5.20E-09,  avg # of iterations =  2.3

     total cpu time spent up to now is     2005.7 secs

     total energy              =  -11634.08721858 Ry
     estimated scf accuracy    <       0.00000146 Ry

     iteration # 23     ecut=    80.00 Ry     beta= 0.70
     Davidson diagonalization with overlap
     ethr =  2.53E-10,  avg # of iterations =  6.0

     total cpu time spent up to now is     2110.4 secs

     total energy              =  -11634.08721764 Ry
     estimated scf accuracy    <       0.00001598 Ry

     iteration # 24     ecut=    80.00 Ry     beta= 0.70
     Davidson diagonalization with overlap
     ethr =  2.53E-10,  avg # of iterations =  5.7

     total cpu time spent up to now is     2210.2 secs

     total energy              =  -11634.08721856 Ry
     estimated scf accuracy    <       0.00000969 Ry

     iteration # 25     ecut=    80.00 Ry     beta= 0.70
     Davidson diagonalization with overlap
     ethr =  2.53E-10,  avg # of iterations =  4.7

     total cpu time spent up to now is     2298.6 secs

     total energy              =  -11634.08721914 Ry
     estimated scf accuracy    <       0.00000123 Ry

     iteration # 26     ecut=    80.00 Ry     beta= 0.70
     Davidson diagonalization with overlap
     ethr =  2.14E-10,  avg # of iterations =  2.0

     total cpu time spent up to now is     2375.5 secs

     End of self-consistent calculation

          k = 0.0000 0.0000 0.0000 ( 92327 PWs)   bands (ev):

   -47.0873 -47.0453 -46.7409 -46.6314 -46.1372 -46.0295 -45.9109 -45.9107
   -45.5182 -45.5182 -45.4099 -45.4099 -45.3890 -45.3883 -45.3794 -45.3793
   -45.3134 -45.3134 -45.2980 -45.2980 -45.2702 -45.2702 -45.1890 -45.1397
   -44.7509 -44.7509 -43.7742 -43.7647 -43.7330 -43.7330 -43.7169 -43.7169
   -33.7145 -33.7145 -33.7145 -33.7145 -26.6829 -26.6732 -25.6303 -25.6298
   -25.6298 -25.5885 -24.8139 -24.7694 -24.6805 -24.6805 -24.3981 -24.3845
   -24.2983 -24.2971 -23.7642 -23.7642 -22.8248 -22.8248 -22.8241 -22.8241
   -22.5051 -22.5048 -22.4844 -22.4842 -22.3817 -22.2888 -22.2054 -22.2054
   -21.9573 -21.9573 -21.8419 -21.8419 -21.8181 -21.8181 -21.7675 -21.7646
   -21.7368 -21.7249 -21.6269 -21.6269 -21.5845 -21.5836 -21.5714 -21.5714
   -21.5301 -21.5275 -21.5275 -21.5228 -21.5183 -21.4678 -21.3682 -21.3682
   -21.2764 -21.2388 -21.2385 -21.2026 -21.2026 -21.1587 -21.1566 -21.1566
   -21.1192 -21.1157 -21.1157 -21.0867 -21.0855 -21.0773 -21.0507 -20.9642
   -20.9642 -20.9354 -20.7900 -20.7900 -20.4554 -20.4540 -20.1653 -20.1638
   -20.1391 -20.1391 -19.9868 -19.9057 -19.8228 -19.8180 -19.3498 -19.3498
   -19.0020 -19.0020 -18.8340 -18.8340 -18.2838 -18.2817 -18.0183 -18.0183
   -17.8284 -17.8284 -17.4818 -17.4818 -10.2086 -10.2086 -10.2086 -10.2085
    -9.6097  -9.6097  -9.6043  -9.6043  -8.8049  -8.8049  -8.8041  -8.8041
    -7.5910  -7.5876  -7.5695  -7.5663  -6.4153  -6.4153  -6.4038  -6.4038
    -2.6673  -2.6639  -2.6629  -2.6615  -0.5949  -0.5188  -0.5086  -0.4966
    -0.1328  -0.1328   0.3749   0.3973   0.5026   0.5203   0.5203   0.5372
     0.5625   0.5625   0.8965   0.9223   2.4499   2.8074   2.9405   2.9954
     3.4784   3.4784   3.8114   4.0545   4.0545   4.1085   4.1085   4.2467
     4.7803   4.7803   4.9364   5.0009   5.0009   5.0088   5.1314   5.1572
     5.2950   5.3668   5.4126   5.4848   5.5741   5.5741   5.6837   5.6837
     6.0096   6.1017   6.1495   6.1495   6.1663   6.1663   6.3233   6.3418
     6.3688   6.4553   6.4553   6.4939   6.5010   6.5535   6.6205   6.6451
     6.6503   6.6503   6.7602   6.7602   6.8293   6.9259   6.9604   7.0027
     7.0261   7.0432   7.0677   7.0677   7.3440   7.3467   7.3467   7.3676
     7.4349   7.4424   7.4424   7.4650   7.5262   7.5607   7.5925   7.5925
     7.6090   7.6195   7.6430   7.6430   7.9272   7.9272   8.0057   8.0904
     8.1030   8.1910   8.2148   8.2148   8.2235   8.2604   8.2957   8.2957
     8.3841   8.3841   8.4141   8.4864   8.4864   8.5238   8.6041   8.6398
     8.6456   8.7341   8.7341   8.7942   8.7942   8.9166   9.0100   9.0100
     9.0169   9.0642   9.0744   9.1502   9.1502   9.2460   9.2727   9.2727
     9.3648   9.3885   9.3885   9.4115   9.4520   9.4730   9.5086   9.5615
     9.6961   9.6961   9.7454   9.7522   9.7522   9.7726   9.8112   9.8563
    10.0624  10.0624  10.1111  10.1607  10.1974  10.1974  10.2460  10.3141
    10.3977  10.4697  10.5704  10.5704  10.6102  10.6123  10.6652  10.6652
    10.6946  10.6946  10.7954  10.8025  10.8339  10.9477  10.9737  10.9737
    11.0504  11.0504  11.1271  11.1361  11.1361  11.1631  11.2213  11.3343
    11.3343  11.3497  11.3719  11.3719  11.4499  11.4795  11.6188  11.7273
    11.7273  11.7436  11.7585  11.7585  11.8569  11.8569  11.9795  11.9807
    12.1397  12.1956

          k = 0.0000-0.5000 0.0000 ( 92204 PWs)   bands (ev):

   -47.0873 -47.0453 -46.7404 -46.6309 -46.1372 -46.0293 -45.9131 -45.9108
   -45.5264 -45.5182 -45.4121 -45.4051 -45.3887 -45.3878 -45.3793 -45.3746
   -45.3103 -45.3037 -45.3013 -45.3012 -45.2762 -45.2699 -45.1884 -45.1395
   -44.7509 -44.7505 -43.7759 -43.7664 -43.7330 -43.7283 -43.7189 -43.7169
   -33.7145 -33.7145 -33.7145 -33.7145 -26.6829 -26.6733 -25.6304 -25.6298
   -25.6296 -25.5886 -24.8138 -24.7693 -24.6878 -24.6804 -24.3978 -24.3845
   -24.3305 -24.2977 -23.7643 -23.7129 -22.8256 -22.8251 -22.8245 -22.8244
   -22.5046 -22.5038 -22.4845 -22.4832 -22.3931 -22.2900 -22.2060 -22.1939
   -21.9589 -21.9092 -21.8626 -21.8443 -21.8417 -21.8189 -21.7660 -21.7644
   -21.7343 -21.6982 -21.6642 -21.6204 -21.5904 -21.5769 -21.5717 -21.5600
   -21.5550 -21.5462 -21.5302 -21.5246 -21.5140 -21.4606 -21.3728 -21.3640
   -21.2649 -21.2336 -21.2263 -21.2027 -21.1845 -21.1675 -21.1565 -21.1465
   -21.1465 -21.1208 -21.1104 -21.0860 -21.0760 -21.0681 -21.0221 -21.0002
   -20.9582 -20.9457 -20.7975 -20.7959 -20.4538 -20.4532 -20.1650 -20.1608
   -20.1394 -20.1392 -19.9832 -19.9077 -19.8234 -19.8187 -19.3515 -19.3487
   -19.0023 -19.0023 -18.8341 -18.8336 -18.2840 -18.2818 -18.0184 -18.0183
   -17.8286 -17.8285 -17.4904 -17.4818 -10.2083 -10.2082 -10.2079 -10.2078
    -9.6089  -9.6087  -9.6072  -9.6071  -8.8046  -8.8046  -8.8045  -8.8045
    -7.5802  -7.5769  -7.5723  -7.5693  -6.4128  -6.4126  -6.4101  -6.4100
    -2.6643  -2.6619  -2.6608  -2.6591  -0.5917  -0.5293  -0.5194  -0.5010
    -0.1426  -0.1398   0.3798   0.4603   0.4822   0.4964   0.5260   0.5340
     0.5396   0.5685   0.8296   0.9138   2.4606   2.8108   2.8244   2.9772
     3.4716   3.4810   3.8316   4.0827   4.0863   4.2234   4.2470   4.3157
     4.8490   4.8740   4.8945   5.0062   5.0777   5.1392   5.1604   5.2388
     5.3521   5.4061   5.4701   5.5265   5.5593   5.6547   5.6955   5.7018
     5.9434   6.0564   6.0799   6.1130   6.1559   6.2139   6.2443   6.2956
     6.3256   6.3335   6.3695   6.4758   6.4790   6.4822   6.5220   6.5329
     6.6147   6.6594   6.7460   6.8328   6.8416   6.8449   7.0570   7.0769
     7.1043   7.1271   7.2030   7.2543   7.2592   7.2768   7.2784   7.2987
     7.3082   7.4216   7.4269   7.4380   7.4609   7.4848   7.5539   7.5613
     7.6275   7.6479   7.7580   7.7845   7.8832   7.8969   7.9140   7.9427
     7.9917   8.0030   8.1079   8.1400   8.1883   8.2155   8.2833   8.3244
     8.3544   8.4078   8.4176   8.4586   8.4912   8.5516   8.5800   8.6236
     8.6645   8.6674   8.7013   8.7876   8.8099   8.8738   8.9711   8.9789
     8.9966   9.0279   9.0588   9.0675   9.1898   9.2095   9.2099   9.3483
     9.3551   9.3611   9.4617   9.4669   9.5073   9.5197   9.6185   9.6289
     9.7007   9.7161   9.8223   9.8650   9.8704   9.8746   9.9698  10.0186
    10.0365  10.1046  10.1156  10.1518  10.2189  10.2415  10.2504  10.3498
    10.4096  10.4422  10.5215  10.5395  10.5472  10.5518  10.5637  10.6058
    10.6682  10.6682  10.7995  10.8394  10.8552  10.9674  10.9702  10.9983
    11.0011  11.0161  11.0763  11.1405  11.1453  11.1993  11.2234  11.2712
    11.3234  11.3617  11.4119  11.5348  11.6055  11.6352  11.6698  11.7098
    11.7259  11.8257  11.8408  11.8762  11.9490  11.9744  12.0194  12.0942
    12.1557  12.1802

          k =-0.5000-0.5000 0.0000 ( 92268 PWs)   bands (ev):

   -47.0872 -47.0453 -46.7400 -46.6305 -46.1372 -46.0292 -45.9131 -45.9131
   -45.5264 -45.5264 -45.4076 -45.4076 -45.3884 -45.3884 -45.3731 -45.3731
   -45.3043 -45.3031 -45.3013 -45.3012 -45.2765 -45.2765 -45.1879 -45.1392
   -44.7505 -44.7505 -43.7773 -43.7684 -43.7287 -43.7280 -43.7189 -43.7189
   -33.7145 -33.7145 -33.7145 -33.7145 -26.6829 -26.6734 -25.6305 -25.6296
   -25.6296 -25.5887 -24.8138 -24.7693 -24.6876 -24.6876 -24.3975 -24.3845
   -24.3306 -24.3306 -23.7130 -23.7130 -22.8255 -22.8254 -22.8253 -22.8252
   -22.5035 -22.5035 -22.4834 -22.4834 -22.4038 -22.2912 -22.1943 -22.1943
   -21.9123 -21.9123 -21.8632 -21.8631 -21.8463 -21.8423 -21.7620 -21.7620
   -21.7064 -21.6981 -21.6981 -21.6318 -21.5796 -21.5790 -21.5648 -21.5631
   -21.5631 -21.5435 -21.5354 -21.5354 -21.5308 -21.4486 -21.3679 -21.3679
   -21.2254 -21.2254 -21.2249 -21.1983 -21.1882 -21.1705 -21.1644 -21.1476
   -21.1476 -21.1292 -21.1054 -21.0741 -21.0741 -21.0689 -21.0045 -20.9902
   -20.9902 -20.9563 -20.8046 -20.8046 -20.4536 -20.4514 -20.1610 -20.1610
   -20.1413 -20.1378 -19.9795 -19.9096 -19.8241 -19.8195 -19.3504 -19.3504
   -19.0025 -19.0025 -18.8337 -18.8337 -18.2841 -18.2819 -18.0185 -18.0185
   -17.8286 -17.8286 -17.4904 -17.4903 -10.2078 -10.2078 -10.2073 -10.2073
    -9.6141  -9.6139  -9.6041  -9.6039  -8.8056  -8.8055  -8.8037  -8.8036
    -7.5771  -7.5771  -7.5641  -7.5641  -6.4167  -6.4166  -6.4102  -6.4099
    -2.6633  -2.6633  -2.6548  -2.6548  -0.5895  -0.5438  -0.5173  -0.5149
    -0.1497  -0.1497   0.4500   0.4500   0.4809   0.4840   0.4920   0.5000
     0.5782   0.5782   0.7878   0.8685   2.4710   2.7483   2.8416   2.8960
     3.4733   3.4733   3.8696   4.1688   4.2433   4.2462   4.2642   4.3844
     4.9275   4.9306   4.9918   5.0566   5.1437   5.1437   5.1531   5.2348
     5.4431   5.4431   5.5551   5.5557   5.5557   5.6289   5.7006   5.7714
     5.9415   6.0569   6.1131   6.1131   6.1558   6.1558   6.1824   6.2320
     6.2957   6.2957   6.3098   6.3353   6.5652   6.5652   6.6262   6.6532
     6.6532   6.7010   6.7111   6.7111   6.8332   6.8332   6.9735   7.0811
     7.0811   7.1088   7.1210   7.1472   7.2372   7.2372   7.2735   7.3213
     7.3213   7.3502   7.3610   7.4021   7.4021   7.4076   7.4535   7.5716
     7.5716   7.6020   7.6979   7.7113   7.7113   7.8088   7.8647   7.8647
     7.9602   7.9602   8.0724   8.0908   8.2219   8.2219   8.2282   8.2580
     8.3392   8.3943   8.3943   8.4041   8.4272   8.5671   8.5813   8.5813
     8.7024   8.7368   8.7584   8.7584   8.9226   8.9243   8.9243   9.0337
     9.0337   9.1010   9.1398   9.1398   9.1552   9.1711   9.1711   9.3440
     9.4312   9.4988   9.5048   9.5577   9.5577   9.5778   9.6458   9.6458
     9.7436   9.7436   9.8196   9.8453   9.9453   9.9637   9.9990   9.9990
    10.0127  10.1329  10.1722  10.1722  10.1771  10.2130  10.3075  10.4080
    10.4080  10.5480  10.5480  10.5723  10.5805  10.5805  10.6083  10.6929
    10.7177  10.7283  10.7819  10.7819  10.8162  10.8668  10.9911  10.9911
    11.0059  11.0458  11.0739  11.0739  11.0797  11.2431  11.2654  11.2654
    11.4455  11.4455  11.4520  11.5371  11.5371  11.5396  11.6932  11.6932
    11.7652  11.7652  11.9118  11.9230  11.9585  11.9585  11.9627  12.1700
    12.1785  12.1786

     the Fermi energy is     9.6621 ev

!    total energy              =  -11634.08721884 Ry
     total all-electron energy =   -248082.486301 Ry
     estimated scf accuracy    <       0.00000051 Ry
     smearing contrib. (-TS)   =      -0.03135278 Ry
     internal energy E=F+TS    =  -11634.05586606 Ry

     The total energy is F=E-TS. E is the sum of the following terms:
     one-electron contribution =   -3276.75708745 Ry
     hartree contribution      =    1880.64290127 Ry
     xc contribution           =   -1128.46925636 Ry
     ewald contribution        =   -2185.73328523 Ry
     one-center paw contrib.   =   -6923.73913828 Ry

     convergence has been achieved in  26 iterations

     Forces acting on atoms (cartesian axes, Ry/au):

     atom    1 type  1   force =     0.00000000    0.00000000    0.00000000
     atom    2 type  1   force =     0.00000000    0.00000000    0.00000000
     atom    3 type  1   force =    -0.33182613    0.79914496   -0.18642299
     atom    4 type  1   force =     0.33182613   -0.79914496   -0.18642299
     atom    5 type  1   force =    -0.79914496   -0.33182613   -0.18642299
     atom    6 type  1   force =     0.79914496    0.33182613   -0.18642299
     atom    7 type  1   force =     0.33182613    0.79914496    0.18642299
     atom    8 type  1   force =    -0.33182613   -0.79914496    0.18642299
     atom    9 type  1   force =     0.79914496   -0.33182613    0.18642299
     atom   10 type  1   force =    -0.79914496    0.33182613    0.18642299
     atom   11 type  1   force =    -0.14382650   -0.43176885   -0.08275888
     atom   12 type  1   force =     0.14382650    0.43176885   -0.08275888
     atom   13 type  1   force =     0.43176885   -0.14382650   -0.08275888
     atom   14 type  1   force =    -0.43176885    0.14382650   -0.08275888
     atom   15 type  1   force =     0.14382650   -0.43176885    0.08275888
     atom   16 type  1   force =    -0.14382650    0.43176885    0.08275888
     atom   17 type  1   force =    -0.43176885   -0.14382650    0.08275888
     atom   18 type  1   force =     0.43176885    0.14382650    0.08275888
     atom   19 type  1   force =     0.88051666   -0.90980237   -0.97359388
     atom   20 type  1   force =    -0.88051666    0.90980237   -0.97359388
     atom   21 type  1   force =     0.90980237    0.88051666   -0.97359388
     atom   22 type  1   force =    -0.90980237   -0.88051666   -0.97359388
     atom   23 type  1   force =    -0.88051666   -0.90980237    0.97359388
     atom   24 type  1   force =     0.88051666    0.90980237    0.97359388
     atom   25 type  1   force =    -0.90980237    0.88051666    0.97359388
     atom   26 type  1   force =     0.90980237   -0.88051666    0.97359388
     atom   27 type  1   force =     0.00000000    0.00000000    0.00000000
     atom   28 type  1   force =     0.00000000    0.00000000    0.00000000
     atom   29 type  1   force =    -0.29576752   -0.00000000    0.00000000
     atom   30 type  1   force =     0.29576752    0.00000000    0.00000000
     atom   31 type  1   force =     0.00000000   -0.29576752    0.00000000
     atom   32 type  1   force =    -0.00000000    0.29576752    0.00000000
     atom   33 type  3   force =     0.31918582   -0.12874797   -0.16120392
     atom   34 type  3   force =    -0.31918582    0.12874797   -0.16120392
     atom   35 type  3   force =     0.12874797    0.31918582   -0.16120392
     atom   36 type  3   force =    -0.12874797   -0.31918582   -0.16120392
     atom   37 type  3   force =    -0.31918582   -0.12874797    0.16120392
     atom   38 type  3   force =     0.31918582    0.12874797    0.16120392
     atom   39 type  3   force =    -0.12874797    0.31918582    0.16120392
     atom   40 type  3   force =     0.12874797   -0.31918582    0.16120392
     atom   41 type  3   force =     0.00000000    0.00000000    0.00000000
     atom   42 type  3   force =     0.00000000    0.00000000    0.00000000
     atom   43 type  3   force =     0.00000000    0.00000000    0.00000000
     atom   44 type  3   force =     0.00000000    0.00000000    0.00000000
     atom   45 type  3   force =    -0.00000000   -0.00000000    0.09320812
     atom   46 type  3   force =    -0.00000000   -0.00000000    0.09320812
     atom   47 type  3   force =     0.00000000    0.00000000   -0.09320812
     atom   48 type  3   force =     0.00000000    0.00000000   -0.09320812
     atom   49 type  2   force =    -0.07221692    0.15095583    0.00453641
     atom   50 type  2   force =     0.07221692   -0.15095583    0.00453641
     atom   51 type  2   force =    -0.15095583   -0.07221692    0.00453641
     atom   52 type  2   force =     0.15095583    0.07221692    0.00453641
     atom   53 type  2   force =     0.07221692    0.15095583   -0.00453641
     atom   54 type  2   force =    -0.07221692   -0.15095583   -0.00453641
     atom   55 type  2   force =     0.15095583   -0.07221692   -0.00453641
     atom   56 type  2   force =    -0.15095583    0.07221692   -0.00453641
     atom   57 type  2   force =    -0.00000000   -0.00000000    3.34412077
     atom   58 type  2   force =    -0.00000000   -0.00000000    3.34412077
     atom   59 type  2   force =     0.00000000    0.00000000   -3.34412077
     atom   60 type  2   force =     0.00000000    0.00000000   -3.34412077
     atom   61 type  2   force =    -0.00000000   -0.00000000    3.97582595
     atom   62 type  2   force =    -0.00000000   -0.00000000    3.97582595
     atom   63 type  2   force =     0.00000000    0.00000000   -3.97582595
     atom   64 type  2   force =     0.00000000    0.00000000   -3.97582595

     Total force =    11.752142     Total SCF correction =     0.002098

     BFGS Geometry Optimization
     Energy error            =      0.0E+00 Ry
     Gradient error          =      4.0E+00 Ry/Bohr

     number of scf cycles    =   1
     number of bfgs steps    =   0

     energy             new  =  -11634.0872188396 Ry

     new trust radius        =       0.5000000000 bohr
     new conv_thr            =       0.0000010000 Ry


ATOMIC_POSITIONS (crystal)
Nb            0.5000000000        0.5000000000       -0.0000000000
Nb            0.5000000000        0.5000000000        0.5000000000
Nb            0.9785302665        0.7021785534        0.1444280265
Nb           -0.9785302665       -0.7021785534        0.1444280265
Nb           -0.7021785534        0.9785302665        0.6444280265
Nb            0.7021785534       -0.9785302665        0.6444280265
Nb           -0.9785302665        0.7021785534       -0.1444280265
Nb            0.9785302665       -0.7021785534       -0.1444280265
Nb            0.7021785534        0.9785302665        0.3555719735
Nb           -0.7021785534       -0.9785302665        0.3555719735
Nb            0.3986357793        0.3215296934        0.4319472579
Nb            0.6013642207        0.6784703066        0.4319472579
Nb            0.6784703066        0.3986357793        0.9319472579
Nb            0.3215296934        0.6013642207        0.9319472579
Nb            0.6013642207        0.3215296934        0.5680527421
Nb            0.3986357793        0.6784703066        0.5680527421
Nb            0.3215296934        0.3986357793        0.0680527421
Nb            0.6784703066        0.6013642207        0.0680527421
Nb            0.5917069893        0.4033361810        0.6844927089
Nb            0.4082930107        0.5966638190        0.6844927089
Nb            0.5966638190        0.5917069893        0.1844927089
Nb            0.4033361810        0.4082930107        0.1844927089
Nb            0.4082930107        0.4033361810        0.3155072911
Nb            0.5917069893        0.5966638190        0.3155072911
Nb            0.4033361810        0.5917069893        0.8155072911
Nb            0.5966638190        0.4082930107        0.8155072911
Nb            0.0000000000        0.5000000000        0.0000000000
Nb            0.5000000000        0.0000000000        0.5000000000
Nb            0.8786517103        0.5000000000        0.5000000000
Nb            0.1213482897        0.5000000000        0.5000000000
Nb            0.5000000000        0.8786517103        0.0000000000
Nb            0.5000000000        0.1213482897       -0.0000000000
C             0.1751553876        0.6411893419        0.1154680331
C             0.8248446124        0.3588106581        0.1154680331
C             0.3588106581        0.1751553876        0.6154680331
C             0.6411893419        0.8248446124        0.6154680331
C             0.8248446124        0.6411893419        0.8845319669
C             0.1751553876        0.3588106581        0.8845319669
C             0.6411893419        0.1751553876        0.3845319669
C             0.3588106581        0.8248446124        0.3845319669
C             0.0000000000        0.0000000000        0.0000000000
C             0.0000000000        0.0000000000        0.5000000000
C             0.5000000000        0.5000000000        0.2500000000
C             0.5000000000        0.5000000000        0.7500000000
C            -0.0000000000       -0.0000000000        0.8794609948
C            -0.0000000000       -0.0000000000        0.3794609948
C             0.0000000000        0.0000000000        0.1205390052
C             0.0000000000        0.0000000000        0.6205390052
O             0.9541883887        0.6466230667        0.2928503028
O             0.0458116113        0.3533769333        0.2928503028
O             0.3533769333        0.9541883887        0.7928503028
O             0.6466230667        0.0458116113        0.7928503028
O             0.0458116113        0.6466230667        0.7071496972
O             0.9541883887        0.3533769333        0.7071496972
O             0.6466230667        0.9541883887        0.2071496972
O             0.3533769333        0.0458116113        0.2071496972
O            -0.0000000000        0.5000000000        0.8330314047
O             0.5000000000       -0.0000000000        0.3330314047
O             0.0000000000        0.5000000000        0.1669685953
O             0.5000000000        0.0000000000        0.6669685953
O            -0.0000000000        0.5000000000        0.2441172462
O             0.5000000000       -0.0000000000        0.7441172462
O             0.0000000000        0.5000000000        0.7558827538
O             0.5000000000        0.0000000000        0.2558827538



     Writing config-only to output data dir ./out.d/pwscf.save/
     NEW-OLD atomic charge density approx. for the potential

     Check: negative core charge=   -0.000006

     total cpu time spent up to now is     2405.6 secs

     per-process dynamical memory:  1064.3 Mb

     Self-consistent Calculation

     iteration #  1     ecut=    80.00 Ry     beta= 0.70
     Davidson diagonalization with overlap
     c_bands:  5 eigenvalues not converged
     c_bands:  1 eigenvalues not converged
     c_bands:  5 eigenvalues not converged
     ethr =  1.00E-06,  avg # of iterations = 26.7

     total cpu time spent up to now is     2820.3 secs

     total energy              =  -11639.17859827 Ry
     estimated scf accuracy    <       3.00744207 Ry

     iteration #  2     ecut=    80.00 Ry     beta= 0.70
     Davidson diagonalization with overlap
     ethr =  5.22E-04,  avg # of iterations = 10.7

     total cpu time spent up to now is     2974.9 secs

     total energy              =  -11633.35949579 Ry
     estimated scf accuracy    <      91.53552093 Ry

     iteration #  3     ecut=    80.00 Ry     beta= 0.70
     Davidson diagonalization with overlap
     ethr =  5.22E-04,  avg # of iterations =  8.7

     total cpu time spent up to now is     3103.8 secs

     total energy              =  -11639.49527930 Ry
     estimated scf accuracy    <      20.17691460 Ry

     iteration #  4     ecut=    80.00 Ry     beta= 0.70
     Davidson diagonalization with overlap
     ethr =  5.22E-04,  avg # of iterations =  5.0

     total cpu time spent up to now is     3193.9 secs

     total energy              =  -11640.80674997 Ry
     estimated scf accuracy    <       2.21842719 Ry

     iteration #  5     ecut=    80.00 Ry     beta= 0.70
     Davidson diagonalization with overlap
     ethr =  3.85E-04,  avg # of iterations =  2.7

     total cpu time spent up to now is     3272.6 secs

     total energy              =  -11640.94657642 Ry
     estimated scf accuracy    <       1.80948853 Ry

     iteration #  6     ecut=    80.00 Ry     beta= 0.70
     Davidson diagonalization with overlap
     ethr =  3.14E-04,  avg # of iterations =  2.0

     total cpu time spent up to now is     3350.8 secs

     total energy              =  -11641.04258222 Ry
     estimated scf accuracy    <       1.44972961 Ry

     iteration #  7     ecut=    80.00 Ry     beta= 0.70
     Davidson diagonalization with overlap
     ethr =  2.52E-04,  avg # of iterations =  1.7

     total cpu time spent up to now is     3424.4 secs

     total energy              =  -11641.13523635 Ry
     estimated scf accuracy    <       0.33514003 Ry

     iteration #  8     ecut=    80.00 Ry     beta= 0.70
     Davidson diagonalization with overlap
     ethr =  5.82E-05,  avg # of iterations =  5.3

     total cpu time spent up to now is     3505.5 secs

     total energy              =  -11641.15867957 Ry
     estimated scf accuracy    <       0.12355196 Ry

     iteration #  9     ecut=    80.00 Ry     beta= 0.70
     Davidson diagonalization with overlap
     ethr =  2.14E-05,  avg # of iterations = 13.3

     total cpu time spent up to now is     3599.7 secs

     total energy              =  -11641.16661715 Ry
     estimated scf accuracy    <       0.11032512 Ry

     iteration # 10     ecut=    80.00 Ry     beta= 0.70
     Davidson diagonalization with overlap
     ethr =  1.92E-05,  avg # of iterations =  2.0

     total cpu time spent up to now is     3675.2 secs

     total energy              =  -11641.17305431 Ry
     estimated scf accuracy    <       0.02588917 Ry

     iteration # 11     ecut=    80.00 Ry     beta= 0.70
     Davidson diagonalization with overlap
     c_bands:  1 eigenvalues not converged
     ethr =  4.49E-06,  avg # of iterations = 11.3

     total cpu time spent up to now is     3766.5 secs

     total energy              =  -11641.17527599 Ry
     estimated scf accuracy    <       0.00876157 Ry

     iteration # 12     ecut=    80.00 Ry     beta= 0.70
     Davidson diagonalization with overlap
     ethr =  1.52E-06,  avg # of iterations = 10.3

     total cpu time spent up to now is     3854.5 secs

     total energy              =  -11641.17492586 Ry
     estimated scf accuracy    <       0.00671611 Ry

     iteration # 13     ecut=    80.00 Ry     beta= 0.70
     Davidson diagonalization with overlap
     ethr =  1.17E-06,  avg # of iterations =  5.0

     total cpu time spent up to now is     3941.3 secs

     total energy              =  -11641.17502490 Ry
     estimated scf accuracy    <       0.01896943 Ry

     iteration # 14     ecut=    80.00 Ry     beta= 0.70
     Davidson diagonalization with overlap
     ethr =  1.17E-06,  avg # of iterations =  2.3

     total cpu time spent up to now is     4016.9 secs

     total energy              =  -11641.17623784 Ry
     estimated scf accuracy    <       0.00012888 Ry

     iteration # 15     ecut=    80.00 Ry     beta= 0.70
     Davidson diagonalization with overlap
     ethr =  2.24E-08,  avg # of iterations =  6.7

     total cpu time spent up to now is     4131.3 secs

     total energy              =  -11641.17629504 Ry
     estimated scf accuracy    <       0.00016175 Ry

     iteration # 16     ecut=    80.00 Ry     beta= 0.70
     Davidson diagonalization with overlap
     ethr =  2.24E-08,  avg # of iterations =  2.0

     total cpu time spent up to now is     4209.2 secs

     total energy              =  -11641.17630104 Ry
     estimated scf accuracy    <       0.00008627 Ry

     iteration # 17     ecut=    80.00 Ry     beta= 0.70
     Davidson diagonalization with overlap
     ethr =  1.50E-08,  avg # of iterations =  2.0

     total cpu time spent up to now is     4285.7 secs

     total energy              =  -11641.17630700 Ry
     estimated scf accuracy    <       0.00003471 Ry

     iteration # 18     ecut=    80.00 Ry     beta= 0.70
     Davidson diagonalization with overlap
     ethr =  6.03E-09,  avg # of iterations =  2.0

     total cpu time spent up to now is     4362.6 secs

     total energy              =  -11641.17630788 Ry
     estimated scf accuracy    <       0.00003539 Ry

     iteration # 19     ecut=    80.00 Ry     beta= 0.70
     Davidson diagonalization with overlap
     ethr =  6.03E-09,  avg # of iterations =  1.0

     total cpu time spent up to now is     4433.0 secs

     total energy              =  -11641.17630951 Ry
     estimated scf accuracy    <       0.00000220 Ry

     iteration # 20     ecut=    80.00 Ry     beta= 0.70
     Davidson diagonalization with overlap
     ethr =  3.83E-10,  avg # of iterations =  5.3

     total cpu time spent up to now is     4531.8 secs

     total energy              =  -11641.17630938 Ry
     estimated scf accuracy    <       0.00001382 Ry

     iteration # 21     ecut=    80.00 Ry     beta= 0.70
     Davidson diagonalization with overlap
     ethr =  3.83E-10,  avg # of iterations =  4.7

     total cpu time spent up to now is     4616.7 secs

     total energy              =  -11641.17631016 Ry
     estimated scf accuracy    <       0.00000335 Ry

     iteration # 22     ecut=    80.00 Ry     beta= 0.70
     Davidson diagonalization with overlap
     ethr =  3.83E-10,  avg # of iterations =  2.0

     total cpu time spent up to now is     4694.1 secs

     End of self-consistent calculation

          k = 0.0000 0.0000 0.0000 ( 92327 PWs)   bands (ev):

   -46.4972 -46.4650 -45.9435 -45.7417 -45.7134 -45.7104 -45.5890 -45.5889
   -45.5448 -45.3406 -45.3406 -45.2610 -45.2592 -45.2584 -45.2573 -45.2444
   -45.2444 -45.2242 -45.2194 -45.2194 -45.1971 -45.1971 -44.8935 -44.7234
   -44.4551 -44.4551 -43.9460 -43.9460 -43.8429 -43.8429 -43.7438 -43.7188
   -25.4093 -25.3698 -25.3049 -25.3049 -24.6448 -24.3718 -24.2698 -24.1419
   -24.1419 -24.0026 -23.9587 -23.9576 -23.5505 -23.5505 -23.5449 -23.5448
   -23.3884 -23.3884 -23.1875 -23.1627 -22.4030 -22.4030 -22.3443 -22.2840
   -22.2840 -22.2826 -22.2826 -22.2818 -21.8398 -21.8369 -21.7300 -21.7300
   -21.7143 -21.7143 -21.6560 -21.6513 -21.6129 -21.6129 -21.5740 -21.5740
   -21.5547 -21.5542 -21.4711 -21.4711 -21.4347 -21.4347 -21.4328 -21.4211
   -21.4211 -21.4163 -21.2363 -21.2363 -21.1779 -21.1779 -21.1584 -21.1553
   -21.1460 -21.1387 -21.1387 -21.1384 -21.0746 -21.0536 -21.0353 -21.0316
   -20.9001 -20.9001 -20.7348 -20.6921 -20.6921 -20.5610 -20.4376 -20.4095
   -20.3500 -20.3500 -20.2543 -20.2251 -20.2075 -20.2075 -20.0005 -20.0000
   -19.5585 -19.5585 -19.4453 -19.4253 -19.4253 -19.3522 -18.9298 -18.9298
   -18.7279 -18.7279 -18.3871 -18.3846 -17.8905 -17.8905 -17.7863 -17.7863
   -16.5902 -16.5900 -16.5875 -16.5874 -11.4414 -11.4406 -11.4344 -11.4337
    -9.0752  -9.0752  -9.0613  -9.0613  -5.9621  -5.9509  -5.9127  -5.9019
    -1.4552  -1.4552  -1.4405  -1.4405  -1.3275  -1.2728  -1.2577  -1.2173
    -0.7170  -0.6419  -0.4914  -0.4609  -0.2503  -0.2503  -0.2305  -0.2305
     0.5050   0.5585   0.6093   0.6659   0.9591   1.0048   1.3272   1.3272
     1.3430   1.3430   1.6017   1.6017   2.4613   2.4613   2.5400   2.5400
     2.8059   2.9715   3.0437   3.2370   3.6762   3.6762   3.8590   3.8590
     3.9762   3.9762   4.2234   4.7994   5.1610   5.1825   5.2541   5.2598
     5.4040   5.4438   5.5518   5.5955   5.6461   5.6461   5.6830   5.7099
     5.7099   5.9328   6.1037   6.2718   6.2755   6.2755   6.3256   6.3256
     6.3574   6.4309   6.4442   6.4913   6.5679   6.5679   6.5925   6.6455
     6.6785   6.6785   6.9097   6.9490   6.9616   7.0634   7.0634   7.0784
     7.1715   7.2490   7.2490   7.3112   7.3211   7.3712   7.4935   7.4935
     7.5529   7.5654   7.5654   7.5865   7.6167   7.6169   7.6572   7.6856
     7.6921   7.6921   7.9082   7.9082   7.9400   7.9400   8.0090   8.0645
     8.1380   8.1602   8.1602   8.1683   8.3058   8.3122   8.3122   8.3410
     8.4430   8.4577   8.4577   8.5190   8.5190   8.5513   8.6739   8.7481
     8.7816   8.8099   8.8099   8.9256   8.9623   9.0151   9.0151   9.0373
     9.0373   9.0908   9.0908   9.1071   9.1281   9.1787   9.1892   9.1892
     9.2103   9.2368   9.4160   9.4176   9.4176   9.5699   9.6031   9.6462
     9.6584   9.6584   9.7741   9.7741   9.8001   9.8023   9.8647   9.8647
     9.9699  10.2010  10.2010  10.3607  10.3664  10.3664  10.3730  10.3813
    10.3903  10.4462  10.5979  10.6018  10.6808  10.6808  10.7304  10.7734
    10.7972  10.8483  10.8786  10.8786  11.0074  11.0074  11.0658  11.0689
    11.0689  11.1500  11.1865  11.2509  11.2509  11.3662  11.3702  11.3735
    11.5687  11.5962  11.5962  11.6543  11.6543  11.6719  11.6902  11.6926
    11.6926  11.8073  11.8073  11.9455  12.1132  12.1133  12.1204  12.3795
    12.3909  12.5284

          k = 0.0000-0.5000 0.0000 ( 92204 PWs)   bands (ev):

   -46.4967 -46.4644 -45.9435 -45.7403 -45.7160 -45.7118 -45.5930 -45.5890
   -45.5446 -45.3411 -45.3381 -45.2689 -45.2601 -45.2579 -45.2578 -45.2360
   -45.2282 -45.2251 -45.2238 -45.2203 -45.2028 -45.1975 -44.8934 -44.7234
   -44.4551 -44.4545 -43.9460 -43.9450 -43.8453 -43.8429 -43.7435 -43.7185
   -25.4093 -25.3701 -25.3049 -25.3048 -24.6448 -24.3716 -24.2699 -24.1856
   -24.1418 -24.0023 -23.9582 -23.9455 -23.5516 -23.5495 -23.5450 -23.5438
   -23.3877 -23.3434 -23.1888 -23.1628 -22.4058 -22.3838 -22.3562 -22.2854
   -22.2844 -22.2843 -22.2837 -22.2821 -21.8385 -21.8300 -21.7373 -21.7248
   -21.7201 -21.7184 -21.6547 -21.6388 -21.6192 -21.6124 -21.5776 -21.5738
   -21.5556 -21.5477 -21.5136 -21.4677 -21.4562 -21.4355 -21.4282 -21.4281
   -21.4044 -21.3635 -21.2607 -21.2425 -21.2107 -21.1803 -21.1578 -21.1573
   -21.1535 -21.1441 -21.1408 -21.1023 -21.0637 -21.0497 -21.0425 -21.0044
   -20.9034 -20.9014 -20.7106 -20.7060 -20.6914 -20.5667 -20.4336 -20.4082
   -20.3680 -20.3606 -20.2433 -20.2204 -20.2079 -20.2068 -20.0036 -20.0024
   -19.5587 -19.5587 -19.4416 -19.4273 -19.4243 -19.3525 -18.9292 -18.9289
   -18.7296 -18.7281 -18.3871 -18.3847 -17.8909 -17.8906 -17.7960 -17.7863
   -16.5887 -16.5887 -16.5880 -16.5879 -11.4377 -11.4370 -11.4357 -11.4350
    -9.0688  -9.0688  -9.0686  -9.0686  -5.9369  -5.9305  -5.9259  -5.9198
    -1.4655  -1.4566  -1.4541  -1.4413  -1.2922  -1.2723  -1.2436  -1.2310
    -0.8164  -0.7161  -0.6439  -0.4844  -0.4517  -0.2404  -0.2399   0.0539
     0.5314   0.5775   0.6383   0.6553   0.9173   1.0863   1.3139   1.3162
     1.3429   1.3779   1.6064   1.6113   2.3047   2.4942   2.4959   2.7965
     2.8291   3.0276   3.2545   3.3852   3.6653   3.7067   3.8623   3.8953
     3.9118   4.0115   4.2902   4.9045   5.1456   5.1658   5.2738   5.4638
     5.5084   5.5531   5.5812   5.5980   5.6112   5.6209   5.6835   5.7252
     5.7722   5.8923   6.0367   6.1059   6.1671   6.2532   6.2562   6.3340
     6.4031   6.4326   6.4652   6.4679   6.5092   6.5591   6.5661   6.6386
     6.6908   6.7589   6.9025   6.9175   7.0104   7.0287   7.0536   7.0737
     7.1049   7.1479   7.1860   7.2012   7.2207   7.3465   7.3715   7.3775
     7.4323   7.5013   7.5116   7.5547   7.5593   7.6282   7.6501   7.7322
     7.7448   7.7830   7.8544   7.8742   7.9208   7.9511   7.9770   8.0620
     8.0815   8.1134   8.1647   8.1949   8.2366   8.2538   8.2983   8.2988
     8.3114   8.3386   8.3790   8.4260   8.4742   8.4998   8.5436   8.6100
     8.6473   8.6570   8.7271   8.7647   8.8862   8.9095   8.9219   9.0010
     9.0572   9.1132   9.1153   9.1717   9.2059   9.2787   9.3165   9.3323
     9.3505   9.3848   9.4504   9.4652   9.5462   9.5755   9.6556   9.6696
     9.6970   9.7356   9.7488   9.8275   9.8753   9.9505   9.9556  10.0307
    10.1504  10.2079  10.2191  10.2775  10.2808  10.3894  10.4016  10.4229
    10.4606  10.4689  10.6037  10.6238  10.6464  10.7214  10.7866  10.7989
    10.8858  10.9060  10.9138  10.9393  10.9559  11.0740  11.1263  11.1479
    11.1522  11.1832  11.1846  11.2587  11.3219  11.3287  11.3455  11.4105
    11.5256  11.6674  11.6758  11.6858  11.7702  11.8243  11.8742  11.9082
    11.9869  12.0003  12.0041  12.0114  12.1177  12.1813  12.2054  12.2245
    12.2791  12.3884

          k =-0.5000-0.5000 0.0000 ( 92268 PWs)   bands (ev):

   -46.4961 -46.4637 -45.9434 -45.7386 -45.7160 -45.7160 -45.5930 -45.5930
   -45.5445 -45.3387 -45.3387 -45.2701 -45.2701 -45.2521 -45.2521 -45.2302
   -45.2246 -45.2237 -45.2231 -45.2189 -45.2049 -45.2049 -44.8934 -44.7234
   -44.4545 -44.4545 -43.9450 -43.9450 -43.8454 -43.8452 -43.7431 -43.7183
   -25.4094 -25.3704 -25.3047 -25.3047 -24.6449 -24.3714 -24.2699 -24.1855
   -24.1855 -24.0021 -23.9456 -23.9456 -23.5502 -23.5502 -23.5440 -23.5440
   -23.3429 -23.3429 -23.1900 -23.1628 -22.3866 -22.3866 -22.3673 -22.2862
   -22.2856 -22.2853 -22.2852 -22.2827 -21.8290 -21.8290 -21.7447 -21.7354
   -21.7227 -21.7175 -21.6389 -21.6389 -21.6359 -21.6047 -21.5786 -21.5780
   -21.5477 -21.5477 -21.5051 -21.5051 -21.4750 -21.4649 -21.4045 -21.4045
   -21.3825 -21.3469 -21.2626 -21.2626 -21.2160 -21.2160 -21.1548 -21.1515
   -21.1464 -21.1464 -21.1232 -21.1054 -21.0527 -21.0490 -21.0276 -21.0035
   -20.9045 -20.9045 -20.7084 -20.7084 -20.6784 -20.5720 -20.4297 -20.4080
   -20.3802 -20.3802 -20.2203 -20.2203 -20.2169 -20.2040 -20.0067 -20.0049
   -19.5589 -19.5589 -19.4378 -19.4263 -19.4263 -19.3528 -18.9283 -18.9283
   -18.7298 -18.7298 -18.3872 -18.3847 -17.8909 -17.8909 -17.7961 -17.7958
   -16.5886 -16.5886 -16.5871 -16.5871 -11.4374 -11.4374 -11.4330 -11.4330
    -9.0781  -9.0781  -9.0599  -9.0599  -5.9420  -5.9420  -5.9073  -5.9073
    -1.4756  -1.4635  -1.4522  -1.4395  -1.2727  -1.2727  -1.2284  -1.2284
    -0.8679  -0.7879  -0.7155  -0.6450  -0.5105  -0.3990   0.0155   0.0909
     0.5753   0.5753   0.6631   0.6631   0.9041   1.1220   1.2821   1.3636
     1.3695   1.3705   1.6140   1.6140   2.1902   2.4422   2.7235   2.8367
     2.8551   3.2522   3.3482   3.4262   3.6904   3.6904   3.7962   3.8668
     4.0131   4.0724   4.3490   4.9884   5.1587   5.1587   5.4098   5.5064
     5.5471   5.5471   5.6127   5.6127   5.6321   5.6498   5.8107   5.8272
     5.8272   5.9230   6.0875   6.1388   6.1696   6.1696   6.2911   6.3447
     6.3447   6.3728   6.4491   6.4491   6.4873   6.4924   6.5641   6.6123
     6.6123   6.6986   6.8135   6.8135   6.9312   6.9312   6.9505   7.0042
     7.0042   7.0093   7.1788   7.1828   7.1828   7.2896   7.2896   7.3346
     7.3355   7.3659   7.3659   7.3790   7.4563   7.5301   7.6129   7.7145
     7.7145   7.7674   7.8303   7.8303   7.9156   7.9515   7.9515   8.0401
     8.0626   8.0626   8.1679   8.1777   8.2134   8.2226   8.2550   8.2550
     8.3443   8.4174   8.4198   8.4772   8.4772   8.4915   8.4915   8.5214
     8.5867   8.6958   8.8014   8.8014   8.8313   8.9400   8.9400   9.0296
     9.0296   9.1292   9.1292   9.1728   9.2057   9.2057   9.2129   9.2240
     9.3437   9.5249   9.5487   9.5516   9.5516   9.5696   9.7506   9.7678
     9.8151   9.8151   9.9167  10.0034  10.0262  10.0262  10.0360  10.0999
    10.1543  10.1543  10.2030  10.2030  10.2322  10.4696  10.4696  10.5344
    10.5503  10.5503  10.6223  10.6339  10.6601  10.6942  10.7193  10.7193
    10.9079  10.9639  10.9639  11.0042  11.0641  11.1210  11.1210  11.1766
    11.2566  11.2566  11.2613  11.4066  11.4468  11.4468  11.5095  11.5200
    11.5200  11.5508  11.5849  11.5849  11.6515  11.9183  11.9183  11.9310
    12.0875  12.0876  12.1205  12.1260  12.1393  12.1393  12.2146  12.2185
    12.2471  12.3708

     the Fermi energy is     9.6897 ev

!    total energy              =  -11641.17631003 Ry
     total all-electron energy =   -248089.575393 Ry
     estimated scf accuracy    <       0.00000050 Ry
     smearing contrib. (-TS)   =      -0.03281059 Ry
     internal energy E=F+TS    =  -11641.14349944 Ry

     The total energy is F=E-TS. E is the sum of the following terms:
     one-electron contribution =   -3054.40886850 Ry
     hartree contribution      =    1777.99191796 Ry
     xc contribution           =   -1123.60400397 Ry
     ewald contribution        =   -2317.20152819 Ry
     one-center paw contrib.   =   -6923.92101674 Ry

     convergence has been achieved in  22 iterations

     Forces acting on atoms (cartesian axes, Ry/au):

     atom    1 type  1   force =     0.00000000    0.00000000    0.00000000
     atom    2 type  1   force =     0.00000000    0.00000000    0.00000000
     atom    3 type  1   force =    -0.23521690    0.67045007   -0.06726896
     atom    4 type  1   force =     0.23521690   -0.67045007   -0.06726896
     atom    5 type  1   force =    -0.67045007   -0.23521690   -0.06726896
     atom    6 type  1   force =     0.67045007    0.23521690   -0.06726896
     atom    7 type  1   force =     0.23521690    0.67045007    0.06726896
     atom    8 type  1   force =    -0.23521690   -0.67045007    0.06726896
     atom    9 type  1   force =     0.67045007   -0.23521690    0.06726896
     atom   10 type  1   force =    -0.67045007    0.23521690    0.06726896
     atom   11 type  1   force =    -0.12866792   -0.41501251   -0.00790102
     atom   12 type  1   force =     0.12866792    0.41501251   -0.00790102
     atom   13 type  1   force =     0.41501251   -0.12866792   -0.00790102
     atom   14 type  1   force =    -0.41501251    0.12866792   -0.00790102
     atom   15 type  1   force =     0.12866792   -0.41501251    0.00790102
     atom   16 type  1   force =    -0.12866792    0.41501251    0.00790102
     atom   17 type  1   force =    -0.41501251   -0.12866792    0.00790102
     atom   18 type  1   force =     0.41501251    0.12866792    0.00790102
     atom   19 type  1   force =     0.55549348   -0.54701086   -0.54021677
     atom   20 type  1   force =    -0.55549348    0.54701086   -0.54021677
     atom   21 type  1   force =     0.54701086    0.55549348   -0.54021677
     atom   22 type  1   force =    -0.54701086   -0.55549348   -0.54021677
     atom   23 type  1   force =    -0.55549348   -0.54701086    0.54021677
     atom   24 type  1   force =     0.55549348    0.54701086    0.54021677
     atom   25 type  1   force =    -0.54701086    0.55549348    0.54021677
     atom   26 type  1   force =     0.54701086   -0.55549348    0.54021677
     atom   27 type  1   force =     0.00000000    0.00000000    0.00000000
     atom   28 type  1   force =     0.00000000    0.00000000    0.00000000
     atom   29 type  1   force =    -0.20051948    0.00000000   -0.00000000
     atom   30 type  1   force =     0.20051948    0.00000000   -0.00000000
     atom   31 type  1   force =     0.00000000   -0.20051948    0.00000000
     atom   32 type  1   force =    -0.00000000    0.20051948    0.00000000
     atom   33 type  3   force =     0.26876609   -0.08263689   -0.15801418
     atom   34 type  3   force =    -0.26876609    0.08263689   -0.15801418
     atom   35 type  3   force =     0.08263689    0.26876609   -0.15801418
     atom   36 type  3   force =    -0.08263689   -0.26876609   -0.15801418
     atom   37 type  3   force =    -0.26876609   -0.08263689    0.15801418
     atom   38 type  3   force =     0.26876609    0.08263689    0.15801418
     atom   39 type  3   force =    -0.08263689    0.26876609    0.15801418
     atom   40 type  3   force =     0.08263689   -0.26876609    0.15801418
     atom   41 type  3   force =     0.00000000    0.00000000    0.00000000
     atom   42 type  3   force =     0.00000000    0.00000000    0.00000000
     atom   43 type  3   force =     0.00000000    0.00000000    0.00000000
     atom   44 type  3   force =     0.00000000    0.00000000    0.00000000
     atom   45 type  3   force =    -0.00000000   -0.00000000    0.10461902
     atom   46 type  3   force =    -0.00000000   -0.00000000    0.10461902
     atom   47 type  3   force =     0.00000000    0.00000000   -0.10461902
     atom   48 type  3   force =     0.00000000    0.00000000   -0.10461902
     atom   49 type  2   force =    -0.05565312    0.08623678   -0.01724193
     atom   50 type  2   force =     0.05565312   -0.08623678   -0.01724193
     atom   51 type  2   force =    -0.08623678   -0.05565312   -0.01724193
     atom   52 type  2   force =     0.08623678    0.05565312   -0.01724193
     atom   53 type  2   force =     0.05565312    0.08623678    0.01724193
     atom   54 type  2   force =    -0.05565312   -0.08623678    0.01724193
     atom   55 type  2   force =     0.08623678   -0.05565312    0.01724193
     atom   56 type  2   force =    -0.08623678    0.05565312    0.01724193
     atom   57 type  2   force =    -0.00000000   -0.00000000    0.08717708
     atom   58 type  2   force =    -0.00000000   -0.00000000    0.08717708
     atom   59 type  2   force =     0.00000000    0.00000000   -0.08717708
     atom   60 type  2   force =     0.00000000    0.00000000   -0.08717708
     atom   61 type  2   force =    -0.00000000   -0.00000000    0.51438744
     atom   62 type  2   force =    -0.00000000   -0.00000000    0.51438744
     atom   63 type  2   force =     0.00000000    0.00000000   -0.51438744
     atom   64 type  2   force =     0.00000000    0.00000000   -0.51438744

     Total force =     3.872337     Total SCF correction =     0.003295
     Energy error            =      7.1E+00 Ry
     Gradient error          =      6.7E-01 Ry/Bohr

     number of scf cycles    =   2
     number of bfgs steps    =   1

     energy             old  =  -11634.0872188396 Ry
     energy             new  =  -11641.1763100321 Ry

     CASE: energy            _new < energy            _old

     new trust radius        =       0.8000000000 bohr
     new conv_thr            =       0.0000010000 Ry


ATOMIC_POSITIONS (crystal)
Nb            0.5000000000        0.5000000000       -0.0000000000
Nb            0.5000000000        0.5000000000        0.5000000000
Nb            0.9649845943        0.7418418341        0.1429615552
Nb           -0.9649845943       -0.7418418341        0.1429615552
Nb           -0.7418418341        0.9649845943        0.6429615552
Nb            0.7418418341       -0.9649845943        0.6429615552
Nb           -0.9649845943        0.7418418341       -0.1429615552
Nb            0.9649845943       -0.7418418341       -0.1429615552
Nb            0.7418418341        0.9649845943        0.3570384448
Nb           -0.7418418341       -0.9649845943        0.3570384448
Nb            0.3909553776        0.2965261053        0.4319742971
Nb            0.6090446224        0.7034738947        0.4319742971
Nb            0.7034738947        0.3909553776        0.9319742971
Nb            0.2965261053        0.6090446224        0.9319742971
Nb            0.6090446224        0.2965261053        0.5680257029
Nb            0.3909553776        0.7034738947        0.5680257029
Nb            0.2965261053        0.3909553776        0.0680257029
Nb            0.7034738947        0.6090446224        0.0680257029
Nb            0.6230010543        0.3728268811        0.6710017842
Nb            0.3769989457        0.6271731189        0.6710017842
Nb            0.6271731189        0.6230010543        0.1710017842
Nb            0.3728268811        0.3769989457        0.1710017842
Nb            0.3769989457        0.3728268811        0.3289982158
Nb            0.6230010543        0.6271731189        0.3289982158
Nb            0.3728268811        0.6230010543        0.8289982158
Nb            0.6271731189        0.3769989457        0.8289982158
Nb            0.0000000000        0.5000000000        0.0000000000
Nb            0.5000000000        0.0000000000        0.5000000000
Nb            0.8671967666        0.5000000000        0.5000000000
Nb            0.1328032334        0.5000000000        0.5000000000
Nb            0.5000000000        0.8671967666        0.0000000000
Nb            0.5000000000        0.1328032334       -0.0000000000
C             0.1910637787        0.6365178522        0.1111173018
C             0.8089362213        0.3634821478        0.1111173018
C             0.3634821478        0.1910637787        0.6111173018
C             0.6365178522        0.8089362213        0.6111173018
C             0.8089362213        0.6365178522        0.8888826982
C             0.1910637787        0.3634821478        0.8888826982
C             0.6365178522        0.1910637787        0.3888826982
C             0.3634821478        0.8089362213        0.3888826982
C             0.0000000000        0.0000000000        0.0000000000
C             0.0000000000        0.0000000000        0.5000000000
C             0.5000000000        0.5000000000        0.2500000000
C             0.5000000000        0.5000000000        0.7500000000
C            -0.0000000000       -0.0000000000        0.8823858318
C            -0.0000000000       -0.0000000000        0.3823858318
C             0.0000000000        0.0000000000        0.1176141682
C             0.0000000000        0.0000000000        0.6176141682
O             0.9509382322        0.6513788460        0.2923031185
O             0.0490617678        0.3486211540        0.2923031185
O             0.3486211540        0.9509382322        0.7923031185
O             0.6513788460        0.0490617678        0.7923031185
O             0.0490617678        0.6513788460        0.7076968815
O             0.9509382322        0.3486211540        0.7076968815
O             0.6513788460        0.9509382322        0.2076968815
O             0.3486211540        0.0490617678        0.2076968815
O            -0.0000000000        0.5000000000        0.8247732956
O             0.5000000000       -0.0000000000        0.3247732956
O             0.0000000000        0.5000000000        0.1752267044
O             0.5000000000        0.0000000000        0.6752267044
O            -0.0000000000        0.5000000000        0.2469805239
O             0.5000000000       -0.0000000000        0.7469805239
O             0.0000000000        0.5000000000        0.7530194761
O             0.5000000000        0.0000000000        0.2530194761



     Writing config-only to output data dir ./out.d/pwscf.save/
     NEW-OLD atomic charge density approx. for the potential

     Check: negative core charge=   -0.000006

     total cpu time spent up to now is     4723.6 secs

     per-process dynamical memory:  1064.3 Mb

     Self-consistent Calculation

     iteration #  1     ecut=    80.00 Ry     beta= 0.70
     Davidson diagonalization with overlap
     c_bands:  2 eigenvalues not converged
     ethr =  1.00E-06,  avg # of iterations = 37.3

     total cpu time spent up to now is     5359.1 secs

     total energy              =  -11637.48051594 Ry
     estimated scf accuracy    <      12.68584742 Ry

     iteration #  2     ecut=    80.00 Ry     beta= 0.70
     Davidson diagonalization with overlap
     ethr =  2.20E-03,  avg # of iterations =  8.3

     total cpu time spent up to now is     5504.8 secs

     total energy              =  -11617.24719184 Ry
     estimated scf accuracy    <     376.89443112 Ry

     iteration #  3     ecut=    80.00 Ry     beta= 0.70
     Davidson diagonalization with overlap
     ethr =  2.20E-03,  avg # of iterations =  8.0

     total cpu time spent up to now is     5645.6 secs

     total energy              =  -11641.19816521 Ry
     estimated scf accuracy    <      51.61757876 Ry

     iteration #  4     ecut=    80.00 Ry     beta= 0.70
     Davidson diagonalization with overlap
     ethr =  2.20E-03,  avg # of iterations =  4.7

     total cpu time spent up to now is     5733.2 secs

     total energy              =  -11645.33797822 Ry
     estimated scf accuracy    <       6.41431508 Ry

     iteration #  5     ecut=    80.00 Ry     beta= 0.70
     Davidson diagonalization with overlap
     ethr =  1.11E-03,  avg # of iterations =  3.0

     total cpu time spent up to now is     5812.9 secs

     total energy              =  -11646.03380184 Ry
     estimated scf accuracy    <       2.22814515 Ry

     iteration #  6     ecut=    80.00 Ry     beta= 0.70
     Davidson diagonalization with overlap
     ethr =  3.87E-04,  avg # of iterations =  4.3

     total cpu time spent up to now is     5893.8 secs

     total energy              =  -11646.14050514 Ry
     estimated scf accuracy    <       0.93497074 Ry

     iteration #  7     ecut=    80.00 Ry     beta= 0.70
     Davidson diagonalization with overlap
     ethr =  1.62E-04,  avg # of iterations = 10.0

     total cpu time spent up to now is     5988.5 secs

     total energy              =  -11646.19928859 Ry
     estimated scf accuracy    <       1.37264770 Ry

     iteration #  8     ecut=    80.00 Ry     beta= 0.70
     Davidson diagonalization with overlap
     ethr =  1.62E-04,  avg # of iterations =  2.0

     total cpu time spent up to now is     6065.3 secs

     total energy              =  -11646.25513594 Ry
     estimated scf accuracy    <       0.39411502 Ry

     iteration #  9     ecut=    80.00 Ry     beta= 0.70
     Davidson diagonalization with overlap
     ethr =  6.84E-05,  avg # of iterations =  4.3

     total cpu time spent up to now is     6142.6 secs

     total energy              =  -11646.29253324 Ry
     estimated scf accuracy    <       0.06683050 Ry

     iteration # 10     ecut=    80.00 Ry     beta= 0.70
     Davidson diagonalization with overlap
     ethr =  1.16E-05,  avg # of iterations = 17.3

     total cpu time spent up to now is     6254.6 secs

     total energy              =  -11646.29784705 Ry
     estimated scf accuracy    <       0.02622724 Ry

     iteration # 11     ecut=    80.00 Ry     beta= 0.70
     Davidson diagonalization with overlap
     ethr =  4.55E-06,  avg # of iterations =  6.0

     total cpu time spent up to now is     6340.7 secs

     total energy              =  -11646.30044249 Ry
     estimated scf accuracy    <       0.00861048 Ry

     iteration # 12     ecut=    80.00 Ry     beta= 0.70
     Davidson diagonalization with overlap
     ethr =  1.49E-06,  avg # of iterations =  6.0

     total cpu time spent up to now is     6448.6 secs

     total energy              =  -11646.29893070 Ry
     estimated scf accuracy    <       0.02983303 Ry

     iteration # 13     ecut=    80.00 Ry     beta= 0.70
     Davidson diagonalization with overlap
     ethr =  1.49E-06,  avg # of iterations =  7.0

     total cpu time spent up to now is     6550.2 secs

     total energy              =  -11646.29998436 Ry
     estimated scf accuracy    <       0.03305470 Ry

     iteration # 14     ecut=    80.00 Ry     beta= 0.70
     Davidson diagonalization with overlap
     ethr =  1.49E-06,  avg # of iterations =  3.7

     total cpu time spent up to now is     6630.1 secs

     total energy              =  -11646.30158661 Ry
     estimated scf accuracy    <       0.00147571 Ry

     iteration # 15     ecut=    80.00 Ry     beta= 0.70
     Davidson diagonalization with overlap
     ethr =  2.56E-07,  avg # of iterations =  7.7

     total cpu time spent up to now is     6739.7 secs

     total energy              =  -11646.29968465 Ry
     estimated scf accuracy    <       0.04878193 Ry

     iteration # 16     ecut=    80.00 Ry     beta= 0.70
     Davidson diagonalization with overlap
     ethr =  2.56E-07,  avg # of iterations =  6.0

     total cpu time spent up to now is     6837.7 secs

     total energy              =  -11646.30213718 Ry
     estimated scf accuracy    <       0.00096262 Ry

     iteration # 17     ecut=    80.00 Ry     beta= 0.70
     Davidson diagonalization with overlap
     ethr =  1.67E-07,  avg # of iterations =  2.7

     total cpu time spent up to now is     6913.0 secs

     total energy              =  -11646.30216217 Ry
     estimated scf accuracy    <       0.00055538 Ry

     iteration # 18     ecut=    80.00 Ry     beta= 0.70
     Davidson diagonalization with overlap
     ethr =  9.64E-08,  avg # of iterations =  2.0

     total cpu time spent up to now is     6994.1 secs

     total energy              =  -11646.30213616 Ry
     estimated scf accuracy    <       0.00161867 Ry

     iteration # 19     ecut=    80.00 Ry     beta= 0.70
     Davidson diagonalization with overlap
     ethr =  9.64E-08,  avg # of iterations =  2.0

     total cpu time spent up to now is     7068.0 secs

     total energy              =  -11646.30222390 Ry
     estimated scf accuracy    <       0.00010599 Ry

     iteration # 20     ecut=    80.00 Ry     beta= 0.70
     Davidson diagonalization with overlap
     ethr =  1.84E-08,  avg # of iterations =  2.0

     total cpu time spent up to now is     7147.7 secs

     total energy              =  -11646.30223428 Ry
     estimated scf accuracy    <       0.00001229 Ry

     iteration # 21     ecut=    80.00 Ry     beta= 0.70
     Davidson diagonalization with overlap
     ethr =  2.13E-09,  avg # of iterations =  5.7

     total cpu time spent up to now is     7250.3 secs

     total energy              =  -11646.30223626 Ry
     estimated scf accuracy    <       0.00001192 Ry

     iteration # 22     ecut=    80.00 Ry     beta= 0.70
     Davidson diagonalization with overlap
     ethr =  2.07E-09,  avg # of iterations =  2.3

     total cpu time spent up to now is     7331.8 secs

     total energy              =  -11646.30223688 Ry
     estimated scf accuracy    <       0.00000462 Ry

     iteration # 23     ecut=    80.00 Ry     beta= 0.70
     Davidson diagonalization with overlap
     ethr =  8.01E-10,  avg # of iterations =  5.0

     total cpu time spent up to now is     7429.8 secs

     total energy              =  -11646.30223622 Ry
     estimated scf accuracy    <       0.00002347 Ry

     iteration # 24     ecut=    80.00 Ry     beta= 0.70
     Davidson diagonalization with overlap
     ethr =  8.01E-10,  avg # of iterations =  5.0

     total cpu time spent up to now is     7517.4 secs

     total energy              =  -11646.30223753 Ry
     estimated scf accuracy    <       0.00000127 Ry

     iteration # 25     ecut=    80.00 Ry     beta= 0.70
     Davidson diagonalization with overlap
     ethr =  2.21E-10,  avg # of iterations =  4.0

     total cpu time spent up to now is     7599.9 secs

     End of self-consistent calculation

          k = 0.0000 0.0000 0.0000 ( 92327 PWs)   bands (ev):

   -46.2143 -46.1867 -46.0746 -46.0442 -46.0442 -46.0371 -46.0056 -46.0056
   -45.3349 -45.3346 -45.2493 -45.2482 -45.2318 -45.2315 -45.2309 -45.2308
   -45.2291 -45.2291 -45.2288 -45.2288 -45.1372 -45.1207 -44.3401 -44.3401
   -43.8031 -43.8020 -43.8020 -43.7697 -43.7509 -43.7509 -43.5807 -43.5551
   -24.9624 -24.9624 -24.8208 -24.7712 -24.5699 -24.5699 -24.5675 -24.5165
   -23.1978 -23.1978 -22.9963 -22.9784 -22.7577 -22.7573 -22.4134 -22.4134
   -22.0236 -21.9648 -21.8032 -21.7970 -21.7847 -21.7791 -21.7030 -21.7030
   -21.6839 -21.6502 -21.5885 -21.5885 -21.5764 -21.5712 -21.4990 -21.4990
   -21.4932 -21.4919 -21.4919 -21.4771 -21.4771 -21.4741 -21.4716 -21.4684
   -21.4275 -21.4275 -21.3834 -21.3803 -21.3757 -21.3757 -21.3522 -21.3522
   -21.3284 -21.3284 -21.2748 -21.2748 -21.2574 -21.2574 -21.2447 -21.2433
   -21.2250 -21.2222 -21.1892 -21.1791 -21.1735 -21.1539 -20.9809 -20.9809
   -20.9305 -20.9305 -20.6867 -20.6848 -20.6367 -20.6367 -20.3331 -20.3071
   -20.0876 -20.0845 -20.0729 -20.0729 -20.0240 -20.0199 -20.0199 -20.0157
   -19.4602 -19.4602 -19.1439 -19.1374 -18.9356 -18.9356 -18.9190 -18.9190
   -18.5055 -18.5052 -18.5023 -18.5022 -18.1716 -18.0251 -17.8946 -17.8946
   -17.7877 -17.6428 -17.5576 -17.5576 -11.3136 -11.3128 -11.3091 -11.3084
    -9.5112  -9.5112  -9.4928  -9.4928  -5.4850  -5.4743  -5.4178  -5.4080
    -1.2231  -1.1441  -1.1141  -1.0638  -0.6570  -0.6570  -0.6569  -0.6355
    -0.6355  -0.6115  -0.5655  -0.5173  -0.3379  -0.3379  -0.3351  -0.3351
     0.7654   0.8274   0.8436   0.8510   0.8776   1.0080   1.2043   1.2043
     1.2258   1.2258   2.9838   3.0566   3.2853   3.2853   3.4247   3.4247
     4.2026   4.6651   4.6651   4.7530   4.7807   4.8332   4.8332   5.0296
     5.0296   5.3931   5.4038   5.5035   5.5827   5.5827   5.6026   5.7015
     5.7298   5.7682   5.8341   5.9053   5.9053   5.9156   6.0080   6.0522
     6.1264   6.2059   6.2059   6.2855   6.3220   6.3910   6.3910   6.4411
     6.4411   6.4948   6.5271   6.5932   6.6089   6.6089   6.6089   6.6170
     6.7090   6.7812   6.7857   6.8328   6.8328   6.9419   6.9419   6.9893
     6.9893   7.0180   7.0245   7.1499   7.2405   7.2718   7.2718   7.3886
     7.3913   7.3913   7.4547   7.5773   7.5864   7.6511   7.6511   7.7280
     7.7280   7.7737   7.8535   7.9342   7.9342   8.0670   8.1054   8.1071
     8.1501   8.1501   8.3612   8.3612   8.4367   8.4367   8.4551   8.5185
     8.5278   8.5483   8.5483   8.6156   8.6156   8.6331   8.6634   8.7359
     8.7359   8.8134   8.8134   8.8196   8.9311   9.1660   9.1953   9.1953
     9.2181   9.2415   9.3017   9.3017   9.3522   9.4628   9.4637   9.4909
     9.4909   9.6071   9.6489   9.7040   9.7550   9.7550   9.7918   9.8057
     9.8057   9.8789   9.9089   9.9981  10.0347  10.0347  10.0505  10.1446
    10.1931  10.2220  10.2239  10.2239  10.3758  10.4418  10.4418  10.4954
    10.5438  10.7162  10.7162  10.7617  10.7817  10.7953  10.7953  10.8003
    10.9554  10.9619  10.9686  11.0694  11.0694  11.0975  11.0975  11.1468
    11.1639  11.3265  11.3265  11.3610  11.3615  11.3615  11.4935  11.5451
    11.5451  11.5795  11.6024  11.6626  11.6626  11.7214  11.8432  11.8557
    11.8806  11.8807  11.9271  11.9520  12.0576  12.0576  12.1787  12.1787
    12.2056  12.3390

          k = 0.0000-0.5000 0.0000 ( 92204 PWs)   bands (ev):

   -46.2135 -46.1858 -46.0746 -46.0453 -46.0442 -46.0371 -46.0063 -46.0056
   -45.3347 -45.3345 -45.2487 -45.2435 -45.2314 -45.2314 -45.2314 -45.2301
   -45.2297 -45.2292 -45.2292 -45.2291 -45.1412 -45.1231 -44.3401 -44.3378
   -43.8031 -43.8020 -43.8003 -43.7697 -43.7514 -43.7509 -43.5816 -43.5559
   -24.9623 -24.9567 -24.8257 -24.7713 -24.5731 -24.5708 -24.5698 -24.5166
   -23.1978 -23.1811 -22.9953 -22.9772 -22.8515 -22.7582 -22.4233 -22.3015
   -22.0317 -21.9742 -21.7934 -21.7925 -21.7845 -21.7763 -21.7014 -21.6794
   -21.6719 -21.6493 -21.6050 -21.5861 -21.5796 -21.5780 -21.5365 -21.4995
[...]
    11.3916  11.4188  11.4307  11.4307  11.5319  11.5319  11.5928  11.6968
    11.7300  11.7301  11.7394  11.7441  11.8577  11.8741  11.8742  11.9100
    11.9273  11.9273  11.9447  12.0091  12.0093  12.0452  12.0472  12.0476
    12.0478  12.1217

          k = 0.0000-0.5000 0.0000 ( 92204 PWs)   bands (ev):

   -45.6442 -45.6441 -45.6427 -45.6427 -45.6100 -45.6099 -45.6088 -45.6088
   -45.5203 -45.5197 -45.5193 -45.5191 -45.5190 -45.5184 -45.5180 -45.5179
   -45.0748 -45.0743 -44.7661 -44.7608 -44.6028 -44.5956 -44.5002 -44.4999
   -44.4913 -44.4894 -44.4565 -44.4532 -44.2689 -44.2602 -44.0753 -44.0695
   -22.0248 -22.0219 -21.9535 -21.8769 -21.8748 -21.8673 -21.8649 -21.8574
   -21.8082 -21.7999 -21.7921 -21.7903 -21.7578 -21.7551 -21.7479 -21.7466
   -21.7409 -21.7391 -21.7329 -21.7258 -21.7252 -21.7217 -21.7091 -21.7067
   -21.7059 -21.7025 -21.6974 -21.6933 -21.6868 -21.6772 -21.6725 -21.6640
   -21.6553 -21.6551 -21.6495 -21.6313 -21.6277 -21.6174 -21.6028 -21.5633
   -21.5362 -21.5281 -21.5156 -21.5111 -21.5100 -21.5100 -21.5053 -21.5028
   -21.4997 -21.4861 -21.3926 -21.3786 -21.3736 -21.3569 -21.3362 -21.3232
   -21.2487 -21.2370 -21.2281 -21.2178 -21.1204 -21.0800 -20.9976 -20.8139
   -20.7433 -20.7325 -20.6815 -20.6286 -20.6248 -20.6135 -20.5922 -20.5893
   -20.5809 -20.5516 -20.5494 -20.5428 -20.4983 -20.4977 -20.4657 -20.4478
   -20.4428 -20.4114 -20.3752 -20.3206 -20.3023 -20.2118 -20.1707 -20.1604
   -20.0938 -19.9677 -19.7672 -19.6885 -19.6681 -19.5903 -19.2165 -19.1614
   -12.5108 -12.5105 -12.5097 -12.5093  -8.3677  -8.3673  -8.3586  -8.3585
    -7.0347  -7.0338  -7.0310  -7.0307  -5.4962  -5.4848  -5.4840  -5.4798
    -4.9418  -4.9292  -1.9842  -1.9665   0.0021   0.0746   0.3241   0.3314
     0.4284   0.5057   0.5060   0.5344   0.6889   0.7050   2.8866   2.9160
     2.9448   2.9719   3.1247   3.3867   3.3991   3.4419   3.8748   4.0477
     4.0634   4.0699   4.1244   4.5103   4.5911   4.7603   4.8680   4.8871
     4.9148   4.9530   4.9850   5.1938   5.2954   5.3270   5.3833   5.3954
     5.4023   5.4994   5.6048   5.7056   5.7423   5.7960   5.9073   5.9359
     6.0329   6.0629   6.1565   6.1777   6.2010   6.2507   6.2971   6.3789
     6.5140   6.5254   6.5686   6.6689   6.7203   6.7415   6.8123   6.8158
     6.8518   6.8822   6.9395   6.9896   7.0027   7.0445   7.1134   7.1164
     7.1314   7.1414   7.1442   7.1508   7.2010   7.2985   7.3275   7.4256
     7.4436   7.5064   7.5321   7.5427   7.6871   7.7471   7.7634   7.7795
     7.8940   7.9011   8.0225   8.0285   8.0913   8.1517   8.1694   8.2008
     8.2650   8.2837   8.3620   8.3749   8.3910   8.5110   8.5761   8.6020
     8.6108   8.6258   8.6410   8.6536   8.7327   8.7472   8.7731   8.7997
     8.8141   8.9337   8.9704   9.0125   9.0721   9.1176   9.1844   9.2359
     9.3009   9.3343   9.3779   9.4582   9.4775   9.4866   9.4979   9.5556
     9.5679   9.6408   9.6518   9.6874   9.7111   9.7497   9.7634   9.7809
     9.8087   9.8977   9.9522   9.9523   9.9739  10.0069  10.0073  10.0449
    10.0901  10.2058  10.2163  10.2199  10.2315  10.3608  10.3812  10.4047
    10.4053  10.4275  10.5302  10.5478  10.5530  10.6330  10.6871  10.7090
    10.7597  10.7891  10.8655  10.8967  10.9363  10.9557  10.9926  11.0782
    11.0796  11.1435  11.1980  11.2081  11.2189  11.2249  11.2488  11.3061
    11.3128  11.4168  11.4377  11.4453  11.4950  11.5448  11.5762  11.6069
    11.6385  11.6860  11.7427  11.7687  11.7984  11.8171  11.8194  11.8212
    11.8487  11.8549  11.8719  11.9343  11.9447  11.9884  12.0068  12.0215
    12.0620  12.1216

          k =-0.5000-0.5000 0.0000 ( 92268 PWs)   bands (ev):

   -45.6441 -45.6441 -45.6427 -45.6427 -45.6099 -45.6099 -45.6088 -45.6088
   -45.5194 -45.5192 -45.5192 -45.5191 -45.5190 -45.5190 -45.5184 -45.5184
   -45.0727 -45.0727 -44.7661 -44.7661 -44.6024 -44.6024 -44.5001 -44.5001
   -44.4913 -44.4913 -44.4518 -44.4518 -44.2602 -44.2602 -44.0748 -44.0748
   -22.0006 -21.9980 -21.8933 -21.8933 -21.8789 -21.8710 -21.8651 -21.8577
   -21.8577 -21.8542 -21.8013 -21.8013 -21.7861 -21.7856 -21.7478 -21.7478
   -21.7384 -21.7372 -21.7366 -21.7311 -21.7311 -21.7233 -21.7127 -21.7127
   -21.7026 -21.7026 -21.7012 -21.6981 -21.6979 -21.6934 -21.6810 -21.6810
   -21.6516 -21.6415 -21.6415 -21.6370 -21.6055 -21.6055 -21.6004 -21.5981
   -21.5293 -21.5293 -21.5290 -21.5184 -21.5143 -21.5091 -21.5085 -21.5000
   -21.5000 -21.4689 -21.3979 -21.3979 -21.3629 -21.3407 -21.3376 -21.3376
   -21.2367 -21.2323 -21.1261 -21.1261 -20.9876 -20.9876 -20.9744 -20.9744
   -20.8817 -20.8809 -20.6400 -20.6400 -20.6185 -20.6163 -20.5706 -20.5704
   -20.5457 -20.5457 -20.5268 -20.5268 -20.4990 -20.4979 -20.4377 -20.4377
   -20.4066 -20.4066 -20.3609 -20.3606 -20.2609 -20.2585 -20.1290 -20.1290
   -20.0081 -20.0081 -19.7383 -19.7371 -19.6952 -19.6945 -19.1945 -19.1945
   -12.5110 -12.5110 -12.5079 -12.5079  -8.3747  -8.3743  -8.3520  -8.3520
    -7.0373  -7.0373  -7.0257  -7.0252  -5.4953  -5.4953  -5.4696  -5.4696
    -4.9417  -4.9415  -1.9846  -1.9843   0.0690   0.0690   0.3138   0.3390
     0.3979   0.4685   0.5056   0.5056   0.6843   0.7272   2.9259   2.9259
     2.9738   2.9738   3.0614   3.1854   3.3181   3.4835   3.9400   4.0102
     4.0124   4.0928   4.4446   4.5925   4.5925   4.5970   4.8952   4.8960
     4.8960   4.9619   5.0220   5.2614   5.2614   5.3437   5.3722   5.3722
     5.4665   5.5986   5.5986   5.6020   5.6736   5.8715   5.9384   5.9384
     6.0638   6.0681   6.1559   6.2080   6.3070   6.3070   6.3777   6.3777
     6.4399   6.4591   6.4591   6.4625   6.7256   6.7341   6.7341   6.8150
     6.8743   6.8893   6.9537   6.9618   6.9618   7.0298   7.0298   7.0762
     7.1133   7.1197   7.2182   7.2182   7.3681   7.3905   7.4232   7.4232
     7.5598   7.6160   7.6160   7.6958   7.7209   7.7361   7.7703   7.7703
     7.9699   7.9699   7.9838   7.9839   8.0476   8.0476   8.1404   8.2364
     8.2569   8.2618   8.2618   8.3290   8.3290   8.4055   8.4055   8.4596
     8.5054   8.5592   8.5702   8.5887   8.6577   8.8493   8.8493   8.8668
     8.9662   8.9976   9.1329   9.1329   9.1608   9.2021   9.2581   9.2843
     9.2843   9.3073   9.3863   9.4150   9.5239   9.5310   9.5310   9.5541
     9.6018   9.6411   9.7387   9.7387   9.7802   9.7890   9.8413   9.8524
     9.8524   9.9128   9.9590   9.9590   9.9974   9.9974  10.0143  10.1624
    10.1648  10.1707  10.1707  10.1860  10.2808  10.2808  10.4102  10.4268
    10.4465  10.4465  10.4534  10.4779  10.5840  10.7380  10.7380  10.7437
    10.8037  10.8037  10.8409  10.8780  10.8780  10.8918  10.9244  10.9244
    10.9678  11.0344  11.0344  11.0626  11.1029  11.1099  11.1124  11.1550
    11.2927  11.3684  11.3717  11.4166  11.4483  11.4483  11.5098  11.5098
    11.5528  11.6646  11.6849  11.6849  11.6920  11.7689  11.7831  11.7831
    11.8321  11.8321  11.8815  11.9329  11.9394  11.9910  11.9910  12.0461
    12.0695  12.0696

     the Fermi energy is    10.1175 ev

!    total energy              =  -11652.86617087 Ry
     total all-electron energy =   -248101.265253 Ry
     estimated scf accuracy    <       0.00000027 Ry
     smearing contrib. (-TS)   =      -0.03527154 Ry
     internal energy E=F+TS    =  -11652.83089933 Ry

     The total energy is F=E-TS. E is the sum of the following terms:
     one-electron contribution =   -1855.07443485 Ry
     hartree contribution      =    1182.61585498 Ry
     xc contribution           =   -1109.99971017 Ry
     ewald contribution        =   -2947.49266767 Ry
     one-center paw contrib.   =   -6922.87994162 Ry

     convergence has been achieved in  21 iterations

     Forces acting on atoms (cartesian axes, Ry/au):

     atom    1 type  1   force =     0.00000000    0.00000000    0.00000000
     atom    2 type  1   force =     0.00000000    0.00000000    0.00000000
     atom    3 type  1   force =    -0.01720992   -0.03978154   -0.00621175
     atom    4 type  1   force =     0.01720992    0.03978154   -0.00621175
     atom    5 type  1   force =     0.03978154   -0.01720992   -0.00621175
     atom    6 type  1   force =    -0.03978154    0.01720992   -0.00621175
     atom    7 type  1   force =     0.01720992   -0.03978154    0.00621175
     atom    8 type  1   force =    -0.01720992    0.03978154    0.00621175
     atom    9 type  1   force =    -0.03978154   -0.01720992    0.00621175
     atom   10 type  1   force =     0.03978154    0.01720992    0.00621175
     atom   11 type  1   force =    -0.02633938    0.05310856    0.00758695
     atom   12 type  1   force =     0.02633938   -0.05310856    0.00758695
     atom   13 type  1   force =    -0.05310856   -0.02633938    0.00758695
     atom   14 type  1   force =     0.05310856    0.02633938    0.00758695
     atom   15 type  1   force =     0.02633938    0.05310856   -0.00758695
     atom   16 type  1   force =    -0.02633938   -0.05310856   -0.00758695
     atom   17 type  1   force =     0.05310856   -0.02633938   -0.00758695
     atom   18 type  1   force =    -0.05310856    0.02633938   -0.00758695
     atom   19 type  1   force =     0.06383465   -0.03908725    0.05489106
     atom   20 type  1   force =    -0.06383465    0.03908725    0.05489106
     atom   21 type  1   force =     0.03908725    0.06383465    0.05489106
     atom   22 type  1   force =    -0.03908725   -0.06383465    0.05489106
     atom   23 type  1   force =    -0.06383465   -0.03908725   -0.05489106
     atom   24 type  1   force =     0.06383465    0.03908725   -0.05489106
     atom   25 type  1   force =    -0.03908725    0.06383465   -0.05489106
     atom   26 type  1   force =     0.03908725   -0.06383465   -0.05489106
     atom   27 type  1   force =     0.00000000    0.00000000    0.00000000
     atom   28 type  1   force =     0.00000000    0.00000000    0.00000000
     atom   29 type  1   force =    -0.03883543    0.00000000    0.00000000
     atom   30 type  1   force =     0.03883543   -0.00000000   -0.00000000
     atom   31 type  1   force =     0.00000000   -0.03883543    0.00000000
     atom   32 type  1   force =    -0.00000000    0.03883543   -0.00000000
     atom   33 type  3   force =     0.02157787   -0.00896809   -0.04279036
     atom   34 type  3   force =    -0.02157787    0.00896809   -0.04279036
     atom   35 type  3   force =     0.00896809    0.02157787   -0.04279036
     atom   36 type  3   force =    -0.00896809   -0.02157787   -0.04279036
     atom   37 type  3   force =    -0.02157787   -0.00896809    0.04279036
     atom   38 type  3   force =     0.02157787    0.00896809    0.04279036
     atom   39 type  3   force =    -0.00896809    0.02157787    0.04279036
     atom   40 type  3   force =     0.00896809   -0.02157787    0.04279036
     atom   41 type  3   force =     0.00000000    0.00000000    0.00000000
     atom   42 type  3   force =     0.00000000    0.00000000    0.00000000
     atom   43 type  3   force =     0.00000000    0.00000000    0.00000000
     atom   44 type  3   force =     0.00000000    0.00000000    0.00000000
     atom   45 type  3   force =    -0.00000000   -0.00000000    0.13360771
     atom   46 type  3   force =    -0.00000000   -0.00000000    0.13360771
     atom   47 type  3   force =     0.00000000    0.00000000   -0.13360771
     atom   48 type  3   force =     0.00000000    0.00000000   -0.13360771
     atom   49 type  2   force =    -0.04926847   -0.04237595    0.12237234
     atom   50 type  2   force =     0.04926847    0.04237595    0.12237234
     atom   51 type  2   force =     0.04237595   -0.04926847    0.12237234
     atom   52 type  2   force =    -0.04237595    0.04926847    0.12237234
     atom   53 type  2   force =     0.04926847   -0.04237595   -0.12237234
     atom   54 type  2   force =    -0.04926847    0.04237595   -0.12237234
     atom   55 type  2   force =    -0.04237595   -0.04926847   -0.12237234
     atom   56 type  2   force =     0.04237595    0.04926847   -0.12237234
     atom   57 type  2   force =     0.00000000    0.00000000   -0.02043877
     atom   58 type  2   force =     0.00000000    0.00000000   -0.02043877
     atom   59 type  2   force =    -0.00000000   -0.00000000    0.02043877
     atom   60 type  2   force =    -0.00000000   -0.00000000    0.02043877
     atom   61 type  2   force =    -0.00000000   -0.00000000    0.04896743
     atom   62 type  2   force =    -0.00000000   -0.00000000    0.04896743
     atom   63 type  2   force =     0.00000000    0.00000000   -0.04896743
     atom   64 type  2   force =     0.00000000    0.00000000   -0.04896743

     Total force =     0.611669     Total SCF correction =     0.001696
     Energy error            =      7.7E-01 Ry
     Gradient error          =      1.3E-01 Ry/Bohr

     number of scf cycles    =  10
     number of bfgs steps    =   9

     energy             old  =  -11652.0966816542 Ry
     energy             new  =  -11652.8661708697 Ry

     CASE: energy            _new < energy            _old

     new trust radius        =       0.1740430367 bohr

     The maximum number of steps has been reached.

     End of BFGS Geometry Optimization

ATOMIC_POSITIONS (crystal)
Nb            0.5000000000        0.5000000000       -0.0000000000
Nb            0.5000000000        0.5000000000        0.5000000000
Nb            1.0190935433        0.7583832937        0.1454044543
Nb           -1.0190935433       -0.7583832937        0.1454044543
Nb           -0.7583832937        1.0190935433        0.6454044543
Nb            0.7583832937       -1.0190935433        0.6454044543
Nb           -1.0190935433        0.7583832937       -0.1454044543
Nb            1.0190935433       -0.7583832937       -0.1454044543
Nb            0.7583832937        1.0190935433        0.3545955457
Nb           -0.7583832937       -1.0190935433        0.3545955457
Nb            0.3059908222        0.2247011755        0.4574911796
Nb            0.6940091778        0.7752988245        0.4574911796
Nb            0.7752988245        0.3059908222        0.9574911796
Nb            0.2247011755        0.6940091778        0.9574911796
Nb            0.6940091778        0.2247011755        0.5425088204
Nb            0.3059908222        0.7752988245        0.5425088204
Nb            0.2247011755        0.3059908222        0.0425088204
Nb            0.7752988245        0.6940091778        0.0425088204
Nb            0.7260829114        0.4103300471        0.6779771781
Nb            0.2739170886        0.5896699529        0.6779771781
Nb            0.5896699529        0.7260829114        0.1779771781
Nb            0.4103300471        0.2739170886        0.1779771781
Nb            0.2739170886        0.4103300471        0.3220228219
Nb            0.7260829114        0.5896699529        0.3220228219
Nb            0.4103300471        0.7260829114        0.8220228219
Nb            0.5896699529        0.2739170886        0.8220228219
Nb            0.0000000000        0.5000000000        0.0000000000
Nb            0.5000000000        0.0000000000        0.5000000000
Nb            0.8536271099        0.5000000000        0.5000000000
Nb            0.1463728901        0.5000000000        0.5000000000
Nb            0.5000000000        0.8536271099        0.0000000000
Nb            0.5000000000        0.1463728901       -0.0000000000
C             0.1958983915        0.5967791310        0.0828318573
C             0.8041016085        0.4032208690        0.0828318573
C             0.4032208690        0.1958983915        0.5828318573
C             0.5967791310        0.8041016085        0.5828318573
C             0.8041016085        0.5967791310        0.9171681427
C             0.1958983915        0.4032208690        0.9171681427
C             0.5967791310        0.1958983915        0.4171681427
C             0.4032208690        0.8041016085        0.4171681427
C             0.0000000000        0.0000000000        0.0000000000
C             0.0000000000        0.0000000000        0.5000000000
C             0.5000000000        0.5000000000        0.2500000000
C             0.5000000000        0.5000000000        0.7500000000
C            -0.0000000000       -0.0000000000        0.9228900936
C            -0.0000000000       -0.0000000000        0.4228900936
C             0.0000000000        0.0000000000        0.0771099064
C             0.0000000000        0.0000000000        0.5771099064
O             0.8722630827        0.7809880407        0.3029487393
O             0.1277369173        0.2190119593        0.3029487393
O             0.2190119593        0.8722630827        0.8029487393
O             0.7809880407        0.1277369173        0.8029487393
O             0.1277369173        0.7809880407        0.6970512607
O             0.8722630827        0.2190119593        0.6970512607
O             0.7809880407        0.8722630827        0.1970512607
O             0.2190119593        0.1277369173        0.1970512607
O             0.0000000000        0.5000000000        0.8135927677
O             0.5000000000        0.0000000000        0.3135927677
O            -0.0000000000        0.5000000000        0.1864072323
O             0.5000000000       -0.0000000000        0.6864072323
O            -0.0000000000        0.5000000000        0.2682590588
O             0.5000000000       -0.0000000000        0.7682590588
O             0.0000000000        0.5000000000        0.7317409412
O             0.5000000000        0.0000000000        0.2317409412



     Writing config-only to output data dir ./out.d/pwscf.save/
     NEW-OLD atomic charge density approx. for the potential

     Check: negative core charge=   -0.000006

     Writing all to output data dir ./out.d/pwscf.save/

     init_run     :     40.45s CPU     43.70s WALL (       1 calls)
     electrons    :  23262.29s CPU  24613.64s WALL (      10 calls)
     update_pot   :     60.13s CPU     60.78s WALL (      10 calls)
     forces       :    161.87s CPU    172.43s WALL (      10 calls)

     Called by init_run:
     wfcinit      :     33.47s CPU     35.95s WALL (       1 calls)
     potinit      :      3.92s CPU      4.02s WALL (       1 calls)
     hinit0       :      1.93s CPU      2.04s WALL (       1 calls)

     Called by electrons:
     c_bands      :  19658.34s CPU  20683.66s WALL (     223 calls)
     sum_band     :   2766.21s CPU   2974.60s WALL (     223 calls)
     v_of_rho     :     69.87s CPU     73.82s WALL (     234 calls)
     newd         :    188.02s CPU    299.26s WALL (     234 calls)
     PAW_pot      :    619.89s CPU    622.66s WALL (     244 calls)
     mix_rho      :     22.99s CPU     26.26s WALL (     223 calls)

     Called by c_bands:
     init_us_2    :    123.51s CPU    124.56s WALL (    1401 calls)
     init_us_2:cp :    123.50s CPU    124.55s WALL (    1401 calls)
     cegterg      :  19221.01s CPU  20233.26s WALL (     693 calls)

     Called by *egterg:
     cdiaghg      :    566.94s CPU    596.41s WALL (    5018 calls)
     h_psi        :  11454.84s CPU  12086.21s WALL (    5072 calls)
     s_psi        :   1562.45s CPU   1570.71s WALL (    5072 calls)
     g_psi        :     45.52s CPU     45.89s WALL (    4376 calls)

     Called by h_psi:
     h_psi:calbec :   1496.63s CPU   1509.35s WALL (    5072 calls)
     vloc_psi     :   8334.22s CPU   8865.94s WALL (    5072 calls)
     add_vuspsi   :   1561.36s CPU   1573.73s WALL (    5072 calls)

     General routines
     calbec       :   2053.27s CPU   2070.89s WALL (    5891 calls)
     fft          :     33.28s CPU     37.69s WALL (    2695 calls)
     ffts         :      2.22s CPU      2.51s WALL (     223 calls)
     fftw         :   7007.77s CPU   7593.43s WALL ( 1627328 calls)
     davcio       :      0.00s CPU      0.28s WALL (       3 calls)

     Parallel routines

     PWSCF        :      6h33m CPU      6h56m WALL


   This run was terminated on:   0:34:15  15Aug2023            

=------------------------------------------------------------------------------=
   JOB DONE.
=------------------------------------------------------------------------------=
